 TITLE="3D SURFACE DATA"
 VARIABLES= "X","Y","Z"
 ZONE T="./global_whisker_004.plt"
 ZoneType=FETriangle
 Datapacking=Point
 N=         568
 E=        1120
  -16.850000000000001        0.0000000000000000        0.0000000000000000     
  -17.772613639262374       0.75519004230723275        0.0000000000000000     
  -20.000000000000000        1.0680000000000001        0.0000000000000000     
  -22.227386360737626       0.75519004230723286        0.0000000000000000     
  -23.149999999999999        1.3079227814893733E-016   0.0000000000000000     
  -22.227386360737626      -0.75519004230723275        0.0000000000000000     
  -20.000000000000000       -1.0680000000000001        0.0000000000000000     
  -17.772613639262374      -0.75519004230723297        0.0000000000000000     
  -16.912450000000000        0.0000000000000000        2.0688000000000000     
  -17.816772457747476       0.77179998059730470        2.0688000000000000     
  -20.000000000000000        1.0914900000000001        2.0688000000000000     
  -22.183227542252524       0.77179998059730481        2.0688000000000000     
  -23.087550000000000        1.3366897348013445E-016   2.0688000000000000     
  -22.183227542252524      -0.77179998059730470        2.0688000000000000     
  -20.000000000000000       -1.0914900000000001        2.0688000000000000     
  -17.816772457747476      -0.77179998059730504        2.0688000000000000     
  -17.075949999999999        0.0000000000000000        4.1375999999999999     
  -17.932384416471475       0.81528704764027737        4.1375999999999999     
  -20.000000000000000        1.1529900000000000        4.1375999999999999     
  -22.067615583528525       0.81528704764027748        4.1375999999999999     
  -22.924050000000001        1.4120055129489068E-016   4.1375999999999999     
  -22.067615583528525      -0.81528704764027737        4.1375999999999999     
  -20.000000000000000       -1.1529900000000000        4.1375999999999999     
  -17.932384416471475      -0.81528704764027760        4.1375999999999999     
  -17.278050000000000        0.0000000000000000        6.2064000000000004     
  -18.075290696949278       0.86904130514607869        6.2064000000000004     
  -20.000000000000000        1.2290099999999999        6.2064000000000004     
  -21.924709303050722       0.86904130514607880        6.2064000000000004     
  -22.721950000000000        1.5051031626200885E-016   6.2064000000000004     
  -21.924709303050722      -0.86904130514607869        6.2064000000000004     
  -20.000000000000000       -1.2290099999999999        6.2064000000000004     
  -18.075290696949278      -0.86904130514607891        6.2064000000000004     
  -17.441549999999999        0.0000000000000000        8.2751999999999999     
  -18.190902655673277       0.91252837218905136        8.2751999999999999     
  -20.000000000000000        1.2905100000000000        8.2751999999999999     
  -21.809097344326723       0.91252837218905158        8.2751999999999999     
  -22.558450000000001        1.5804189407676507E-016   8.2751999999999999     
  -21.809097344326723      -0.91252837218905136        8.2751999999999999     
  -20.000000000000000       -1.2905100000000000        8.2751999999999999     
  -18.190902655673277      -0.91252837218905170        8.2751999999999999     
  -17.504000000000001        0.0000000000000000        10.343999999999999     
  -18.235061474158378       0.92913831047912343        10.343999999999999     
  -20.000000000000000        1.3140000000000001        10.343999999999999     
  -21.764938525841622       0.92913831047912354        10.343999999999999     
  -22.495999999999999        1.6091858940796222E-016   10.343999999999999     
  -21.764938525841622      -0.92913831047912343        10.343999999999999     
  -20.000000000000000       -1.3140000000000001        10.343999999999999     
  -18.235061474158378      -0.92913831047912365        10.343999999999999     
  -17.441549999999999        0.0000000000000000        12.412800000000001     
  -18.190902655673277       0.91252837218905136        12.412800000000001     
  -20.000000000000000        1.2905100000000000        12.412800000000001     
  -21.809097344326723       0.91252837218905158        12.412800000000001     
  -22.558450000000001        1.5804189407676507E-016   12.412800000000001     
  -21.809097344326723      -0.91252837218905136        12.412800000000001     
  -20.000000000000000       -1.2905100000000000        12.412800000000001     
  -18.190902655673277      -0.91252837218905170        12.412800000000001     
  -17.278050000000000        0.0000000000000000        14.481600000000000     
  -18.075290696949278       0.86904130514607869        14.481600000000000     
  -20.000000000000000        1.2290099999999999        14.481600000000000     
  -21.924709303050722       0.86904130514607880        14.481600000000000     
  -22.721950000000000        1.5051031626200885E-016   14.481600000000000     
  -21.924709303050722      -0.86904130514607869        14.481600000000000     
  -20.000000000000000       -1.2290099999999999        14.481600000000000     
  -18.075290696949278      -0.86904130514607891        14.481600000000000     
  -17.075949999999999        0.0000000000000000        16.550400000000000     
  -17.932384416471475       0.81528704764027737        16.550400000000000     
  -20.000000000000000        1.1529900000000000        16.550400000000000     
  -22.067615583528525       0.81528704764027748        16.550400000000000     
  -22.924050000000001        1.4120055129489068E-016   16.550400000000000     
  -22.067615583528525      -0.81528704764027737        16.550400000000000     
  -20.000000000000000       -1.1529900000000000        16.550400000000000     
  -17.932384416471475      -0.81528704764027760        16.550400000000000     
  -16.912450000000000        0.0000000000000000        18.619199999999999     
  -17.816772457747476       0.77179998059730470        18.619199999999999     
  -20.000000000000000        1.0914900000000001        18.619199999999999     
  -22.183227542252524       0.77179998059730481        18.619199999999999     
  -23.087550000000000        1.3366897348013445E-016   18.619199999999999     
  -22.183227542252524      -0.77179998059730470        18.619199999999999     
  -20.000000000000000       -1.0914900000000001        18.619199999999999     
  -17.816772457747476      -0.77179998059730504        18.619199999999999     
  -16.850000000000001        0.0000000000000000        20.687999999999999     
  -17.772613639262374       0.75519004230723275        20.687999999999999     
  -20.000000000000000        1.0680000000000001        20.687999999999999     
  -22.227386360737626       0.75519004230723286        20.687999999999999     
  -23.149999999999999        1.3079227814893733E-016   20.687999999999999     
  -22.227386360737626      -0.75519004230723275        20.687999999999999     
  -20.000000000000000       -1.0680000000000001        20.687999999999999     
  -17.772613639262374      -0.75519004230723297        20.687999999999999     
  -16.912450000000000        0.0000000000000000        22.756799999999998     
  -17.816772457747476       0.77179998059730470        22.756799999999998     
  -20.000000000000000        1.0914900000000001        22.756799999999998     
  -22.183227542252524       0.77179998059730481        22.756799999999998     
  -23.087550000000000        1.3366897348013445E-016   22.756799999999998     
  -22.183227542252524      -0.77179998059730470        22.756799999999998     
  -20.000000000000000       -1.0914900000000001        22.756799999999998     
  -17.816772457747476      -0.77179998059730504        22.756799999999998     
  -17.075949999999999        0.0000000000000000        24.825600000000001     
  -17.932384416471475       0.81528704764027737        24.825600000000001     
  -20.000000000000000        1.1529900000000000        24.825600000000001     
  -22.067615583528525       0.81528704764027748        24.825600000000001     
  -22.924050000000001        1.4120055129489068E-016   24.825600000000001     
  -22.067615583528525      -0.81528704764027737        24.825600000000001     
  -20.000000000000000       -1.1529900000000000        24.825600000000001     
  -17.932384416471475      -0.81528704764027760        24.825600000000001     
  -17.278050000000000        0.0000000000000000        26.894400000000001     
  -18.075290696949278       0.86904130514607869        26.894400000000001     
  -20.000000000000000        1.2290099999999999        26.894400000000001     
  -21.924709303050722       0.86904130514607880        26.894400000000001     
  -22.721950000000000        1.5051031626200885E-016   26.894400000000001     
  -21.924709303050722      -0.86904130514607869        26.894400000000001     
  -20.000000000000000       -1.2290099999999999        26.894400000000001     
  -18.075290696949278      -0.86904130514607891        26.894400000000001     
  -17.441549999999999        0.0000000000000000        28.963200000000001     
  -18.190902655673277       0.91252837218905136        28.963200000000001     
  -20.000000000000000        1.2905100000000000        28.963200000000001     
  -21.809097344326723       0.91252837218905158        28.963200000000001     
  -22.558450000000001        1.5804189407676507E-016   28.963200000000001     
  -21.809097344326723      -0.91252837218905136        28.963200000000001     
  -20.000000000000000       -1.2905100000000000        28.963200000000001     
  -18.190902655673277      -0.91252837218905170        28.963200000000001     
  -17.504000000000001        0.0000000000000000        31.032000000000000     
  -18.235061474158378       0.92913831047912343        31.032000000000000     
  -20.000000000000000        1.3140000000000001        31.032000000000000     
  -21.764938525841622       0.92913831047912354        31.032000000000000     
  -22.495999999999999        1.6091858940796222E-016   31.032000000000000     
  -21.764938525841622      -0.92913831047912343        31.032000000000000     
  -20.000000000000000       -1.3140000000000001        31.032000000000000     
  -18.235061474158378      -0.92913831047912365        31.032000000000000     
  -17.441549999999999        0.0000000000000000        33.100800000000000     
  -18.190902655673277       0.91252837218905136        33.100800000000000     
  -20.000000000000000        1.2905100000000000        33.100800000000000     
  -21.809097344326723       0.91252837218905158        33.100800000000000     
  -22.558450000000001        1.5804189407676507E-016   33.100800000000000     
  -21.809097344326723      -0.91252837218905136        33.100800000000000     
  -20.000000000000000       -1.2905100000000000        33.100800000000000     
  -18.190902655673277      -0.91252837218905170        33.100800000000000     
  -17.278050000000000        0.0000000000000000        35.169600000000003     
  -18.075290696949278       0.86904130514607869        35.169600000000003     
  -20.000000000000000        1.2290099999999999        35.169600000000003     
  -21.924709303050722       0.86904130514607880        35.169600000000003     
  -22.721950000000000        1.5051031626200885E-016   35.169600000000003     
  -21.924709303050722      -0.86904130514607869        35.169600000000003     
  -20.000000000000000       -1.2290099999999999        35.169600000000003     
  -18.075290696949278      -0.86904130514607891        35.169600000000003     
  -17.075949999999999        0.0000000000000000        37.238399999999999     
  -17.932384416471475       0.81528704764027737        37.238399999999999     
  -20.000000000000000        1.1529900000000000        37.238399999999999     
  -22.067615583528525       0.81528704764027748        37.238399999999999     
  -22.924050000000001        1.4120055129489068E-016   37.238399999999999     
  -22.067615583528525      -0.81528704764027737        37.238399999999999     
  -20.000000000000000       -1.1529900000000000        37.238399999999999     
  -17.932384416471475      -0.81528704764027760        37.238399999999999     
  -16.912450000000000        0.0000000000000000        39.307200000000002     
  -17.816772457747476       0.77179998059730470        39.307200000000002     
  -20.000000000000000        1.0914900000000001        39.307200000000002     
  -22.183227542252524       0.77179998059730481        39.307200000000002     
  -23.087550000000000        1.3366897348013445E-016   39.307200000000002     
  -22.183227542252524      -0.77179998059730470        39.307200000000002     
  -20.000000000000000       -1.0914900000000001        39.307200000000002     
  -17.816772457747476      -0.77179998059730504        39.307200000000002     
  -16.850000000000001        0.0000000000000000        41.375999999999998     
  -17.772613639262374       0.75519004230723275        41.375999999999998     
  -20.000000000000000        1.0680000000000001        41.375999999999998     
  -22.227386360737626       0.75519004230723286        41.375999999999998     
  -23.149999999999999        1.3079227814893733E-016   41.375999999999998     
  -22.227386360737626      -0.75519004230723275        41.375999999999998     
  -20.000000000000000       -1.0680000000000001        41.375999999999998     
  -17.772613639262374      -0.75519004230723297        41.375999999999998     
  -16.912450000000000        0.0000000000000000        43.444800000000001     
  -17.816772457747476       0.77179998059730470        43.444800000000001     
  -20.000000000000000        1.0914900000000001        43.444800000000001     
  -22.183227542252524       0.77179998059730481        43.444800000000001     
  -23.087550000000000        1.3366897348013445E-016   43.444800000000001     
  -22.183227542252524      -0.77179998059730470        43.444800000000001     
  -20.000000000000000       -1.0914900000000001        43.444800000000001     
  -17.816772457747476      -0.77179998059730504        43.444800000000001     
  -17.075949999999999        0.0000000000000000        45.513599999999997     
  -17.932384416471475       0.81528704764027737        45.513599999999997     
  -20.000000000000000        1.1529900000000000        45.513599999999997     
  -22.067615583528525       0.81528704764027748        45.513599999999997     
  -22.924050000000001        1.4120055129489068E-016   45.513599999999997     
  -22.067615583528525      -0.81528704764027737        45.513599999999997     
  -20.000000000000000       -1.1529900000000000        45.513599999999997     
  -17.932384416471475      -0.81528704764027760        45.513599999999997     
  -17.278050000000000        0.0000000000000000        47.582400000000000     
  -18.075290696949278       0.86904130514607869        47.582400000000000     
  -20.000000000000000        1.2290099999999999        47.582400000000000     
  -21.924709303050722       0.86904130514607880        47.582400000000000     
  -22.721950000000000        1.5051031626200885E-016   47.582400000000000     
  -21.924709303050722      -0.86904130514607869        47.582400000000000     
  -20.000000000000000       -1.2290099999999999        47.582400000000000     
  -18.075290696949278      -0.86904130514607891        47.582400000000000     
  -17.441549999999999        0.0000000000000000        49.651200000000003     
  -18.190902655673277       0.91252837218905136        49.651200000000003     
  -20.000000000000000        1.2905100000000000        49.651200000000003     
  -21.809097344326723       0.91252837218905158        49.651200000000003     
  -22.558450000000001        1.5804189407676507E-016   49.651200000000003     
  -21.809097344326723      -0.91252837218905136        49.651200000000003     
  -20.000000000000000       -1.2905100000000000        49.651200000000003     
  -18.190902655673277      -0.91252837218905170        49.651200000000003     
  -17.504000000000001        0.0000000000000000        51.719999999999999     
  -18.235061474158378       0.92913831047912343        51.719999999999999     
  -20.000000000000000        1.3140000000000001        51.719999999999999     
  -21.764938525841622       0.92913831047912354        51.719999999999999     
  -22.495999999999999        1.6091858940796222E-016   51.719999999999999     
  -21.764938525841622      -0.92913831047912343        51.719999999999999     
  -20.000000000000000       -1.3140000000000001        51.719999999999999     
  -18.235061474158378      -0.92913831047912365        51.719999999999999     
  -17.441549999999999        0.0000000000000000        53.788800000000002     
  -18.190902655673277       0.91252837218905136        53.788800000000002     
  -20.000000000000000        1.2905100000000000        53.788800000000002     
  -21.809097344326723       0.91252837218905158        53.788800000000002     
  -22.558450000000001        1.5804189407676507E-016   53.788800000000002     
  -21.809097344326723      -0.91252837218905136        53.788800000000002     
  -20.000000000000000       -1.2905100000000000        53.788800000000002     
  -18.190902655673277      -0.91252837218905170        53.788800000000002     
  -17.278050000000000        0.0000000000000000        55.857599999999998     
  -18.075290696949278       0.86904130514607869        55.857599999999998     
  -20.000000000000000        1.2290099999999999        55.857599999999998     
  -21.924709303050722       0.86904130514607880        55.857599999999998     
  -22.721950000000000        1.5051031626200885E-016   55.857599999999998     
  -21.924709303050722      -0.86904130514607869        55.857599999999998     
  -20.000000000000000       -1.2290099999999999        55.857599999999998     
  -18.075290696949278      -0.86904130514607891        55.857599999999998     
  -17.075949999999999        0.0000000000000000        57.926400000000001     
  -17.932384416471475       0.81528704764027737        57.926400000000001     
  -20.000000000000000        1.1529900000000000        57.926400000000001     
  -22.067615583528525       0.81528704764027748        57.926400000000001     
  -22.924050000000001        1.4120055129489068E-016   57.926400000000001     
  -22.067615583528525      -0.81528704764027737        57.926400000000001     
  -20.000000000000000       -1.1529900000000000        57.926400000000001     
  -17.932384416471475      -0.81528704764027760        57.926400000000001     
  -16.912450000000000        0.0000000000000000        59.995199999999997     
  -17.816772457747476       0.77179998059730470        59.995199999999997     
  -20.000000000000000        1.0914900000000001        59.995199999999997     
  -22.183227542252524       0.77179998059730481        59.995199999999997     
  -23.087550000000000        1.3366897348013445E-016   59.995199999999997     
  -22.183227542252524      -0.77179998059730470        59.995199999999997     
  -20.000000000000000       -1.0914900000000001        59.995199999999997     
  -17.816772457747476      -0.77179998059730504        59.995199999999997     
  -16.850000000000001        0.0000000000000000        62.064000000000000     
  -17.772613639262374       0.75519004230723275        62.064000000000000     
  -20.000000000000000        1.0680000000000001        62.064000000000000     
  -22.227386360737626       0.75519004230723286        62.064000000000000     
  -23.149999999999999        1.3079227814893733E-016   62.064000000000000     
  -22.227386360737626      -0.75519004230723275        62.064000000000000     
  -20.000000000000000       -1.0680000000000001        62.064000000000000     
  -17.772613639262374      -0.75519004230723297        62.064000000000000     
  -16.912450000000000        0.0000000000000000        64.132800000000003     
  -17.816772457747476       0.77179998059730470        64.132800000000003     
  -20.000000000000000        1.0914900000000001        64.132800000000003     
  -22.183227542252524       0.77179998059730481        64.132800000000003     
  -23.087550000000000        1.3366897348013445E-016   64.132800000000003     
  -22.183227542252524      -0.77179998059730470        64.132800000000003     
  -20.000000000000000       -1.0914900000000001        64.132800000000003     
  -17.816772457747476      -0.77179998059730504        64.132800000000003     
  -17.075949999999999        0.0000000000000000        66.201599999999999     
  -17.932384416471475       0.81528704764027737        66.201599999999999     
  -20.000000000000000        1.1529900000000000        66.201599999999999     
  -22.067615583528525       0.81528704764027748        66.201599999999999     
  -22.924050000000001        1.4120055129489068E-016   66.201599999999999     
  -22.067615583528525      -0.81528704764027737        66.201599999999999     
  -20.000000000000000       -1.1529900000000000        66.201599999999999     
  -17.932384416471475      -0.81528704764027760        66.201599999999999     
  -17.278050000000000        0.0000000000000000        68.270399999999995     
  -18.075290696949278       0.86904130514607869        68.270399999999995     
  -20.000000000000000        1.2290099999999999        68.270399999999995     
  -21.924709303050722       0.86904130514607880        68.270399999999995     
  -22.721950000000000        1.5051031626200885E-016   68.270399999999995     
  -21.924709303050722      -0.86904130514607869        68.270399999999995     
  -20.000000000000000       -1.2290099999999999        68.270399999999995     
  -18.075290696949278      -0.86904130514607891        68.270399999999995     
  -17.441549999999999        0.0000000000000000        70.339200000000005     
  -18.190902655673277       0.91252837218905136        70.339200000000005     
  -20.000000000000000        1.2905100000000000        70.339200000000005     
  -21.809097344326723       0.91252837218905158        70.339200000000005     
  -22.558450000000001        1.5804189407676507E-016   70.339200000000005     
  -21.809097344326723      -0.91252837218905136        70.339200000000005     
  -20.000000000000000       -1.2905100000000000        70.339200000000005     
  -18.190902655673277      -0.91252837218905170        70.339200000000005     
  -17.504000000000001        0.0000000000000000        72.408000000000001     
  -18.235061474158378       0.92913831047912343        72.408000000000001     
  -20.000000000000000        1.3140000000000001        72.408000000000001     
  -21.764938525841622       0.92913831047912354        72.408000000000001     
  -22.495999999999999        1.6091858940796222E-016   72.408000000000001     
  -21.764938525841622      -0.92913831047912343        72.408000000000001     
  -20.000000000000000       -1.3140000000000001        72.408000000000001     
  -18.235061474158378      -0.92913831047912365        72.408000000000001     
  -17.441549999999999        0.0000000000000000        74.476799999999997     
  -18.190902655673277       0.91252837218905136        74.476799999999997     
  -20.000000000000000        1.2905100000000000        74.476799999999997     
  -21.809097344326723       0.91252837218905158        74.476799999999997     
  -22.558450000000001        1.5804189407676507E-016   74.476799999999997     
  -21.809097344326723      -0.91252837218905136        74.476799999999997     
  -20.000000000000000       -1.2905100000000000        74.476799999999997     
  -18.190902655673277      -0.91252837218905170        74.476799999999997     
  -17.278050000000000        0.0000000000000000        76.545599999999993     
  -18.075290696949278       0.86904130514607869        76.545599999999993     
  -20.000000000000000        1.2290099999999999        76.545599999999993     
  -21.924709303050722       0.86904130514607880        76.545599999999993     
  -22.721950000000000        1.5051031626200885E-016   76.545599999999993     
  -21.924709303050722      -0.86904130514607869        76.545599999999993     
  -20.000000000000000       -1.2290099999999999        76.545599999999993     
  -18.075290696949278      -0.86904130514607891        76.545599999999993     
  -17.075949999999999        0.0000000000000000        78.614400000000003     
  -17.932384416471475       0.81528704764027737        78.614400000000003     
  -20.000000000000000        1.1529900000000000        78.614400000000003     
  -22.067615583528525       0.81528704764027748        78.614400000000003     
  -22.924050000000001        1.4120055129489068E-016   78.614400000000003     
  -22.067615583528525      -0.81528704764027737        78.614400000000003     
  -20.000000000000000       -1.1529900000000000        78.614400000000003     
  -17.932384416471475      -0.81528704764027760        78.614400000000003     
  -16.912450000000000        0.0000000000000000        80.683199999999999     
  -17.816772457747476       0.77179998059730470        80.683199999999999     
  -20.000000000000000        1.0914900000000001        80.683199999999999     
  -22.183227542252524       0.77179998059730481        80.683199999999999     
  -23.087550000000000        1.3366897348013445E-016   80.683199999999999     
  -22.183227542252524      -0.77179998059730470        80.683199999999999     
  -20.000000000000000       -1.0914900000000001        80.683199999999999     
  -17.816772457747476      -0.77179998059730504        80.683199999999999     
  -16.850000000000001        0.0000000000000000        82.751999999999995     
  -17.772613639262374       0.75519004230723275        82.751999999999995     
  -20.000000000000000        1.0680000000000001        82.751999999999995     
  -22.227386360737626       0.75519004230723286        82.751999999999995     
  -23.149999999999999        1.3079227814893733E-016   82.751999999999995     
  -22.227386360737626      -0.75519004230723275        82.751999999999995     
  -20.000000000000000       -1.0680000000000001        82.751999999999995     
  -17.772613639262374      -0.75519004230723297        82.751999999999995     
  -16.912450000000000        0.0000000000000000        84.820800000000006     
  -17.816772457747476       0.77179998059730470        84.820800000000006     
  -20.000000000000000        1.0914900000000001        84.820800000000006     
  -22.183227542252524       0.77179998059730481        84.820800000000006     
  -23.087550000000000        1.3366897348013445E-016   84.820800000000006     
  -22.183227542252524      -0.77179998059730470        84.820800000000006     
  -20.000000000000000       -1.0914900000000001        84.820800000000006     
  -17.816772457747476      -0.77179998059730504        84.820800000000006     
  -17.075949999999999        0.0000000000000000        86.889600000000002     
  -17.932384416471475       0.81528704764027737        86.889600000000002     
  -20.000000000000000        1.1529900000000000        86.889600000000002     
  -22.067615583528525       0.81528704764027748        86.889600000000002     
  -22.924050000000001        1.4120055129489068E-016   86.889600000000002     
  -22.067615583528525      -0.81528704764027737        86.889600000000002     
  -20.000000000000000       -1.1529900000000000        86.889600000000002     
  -17.932384416471475      -0.81528704764027760        86.889600000000002     
  -17.278050000000000        0.0000000000000000        88.958399999999997     
  -18.075290696949278       0.86904130514607869        88.958399999999997     
  -20.000000000000000        1.2290099999999999        88.958399999999997     
  -21.924709303050722       0.86904130514607880        88.958399999999997     
  -22.721950000000000        1.5051031626200885E-016   88.958399999999997     
  -21.924709303050722      -0.86904130514607869        88.958399999999997     
  -20.000000000000000       -1.2290099999999999        88.958399999999997     
  -18.075290696949278      -0.86904130514607891        88.958399999999997     
  -17.441549999999999        0.0000000000000000        91.027199999999993     
  -18.190902655673277       0.91252837218905136        91.027199999999993     
  -20.000000000000000        1.2905100000000000        91.027199999999993     
  -21.809097344326723       0.91252837218905158        91.027199999999993     
  -22.558450000000001        1.5804189407676507E-016   91.027199999999993     
  -21.809097344326723      -0.91252837218905136        91.027199999999993     
  -20.000000000000000       -1.2905100000000000        91.027199999999993     
  -18.190902655673277      -0.91252837218905170        91.027199999999993     
  -17.504000000000001        0.0000000000000000        93.096000000000004     
  -18.235061474158378       0.92913831047912343        93.096000000000004     
  -20.000000000000000        1.3140000000000001        93.096000000000004     
  -21.764938525841622       0.92913831047912354        93.096000000000004     
  -22.495999999999999        1.6091858940796222E-016   93.096000000000004     
  -21.764938525841622      -0.92913831047912343        93.096000000000004     
  -20.000000000000000       -1.3140000000000001        93.096000000000004     
  -18.235061474158378      -0.92913831047912365        93.096000000000004     
  -17.441549999999999        0.0000000000000000        95.164800000000000     
  -18.190902655673277       0.91252837218905136        95.164800000000000     
  -20.000000000000000        1.2905100000000000        95.164800000000000     
  -21.809097344326723       0.91252837218905158        95.164800000000000     
  -22.558450000000001        1.5804189407676507E-016   95.164800000000000     
  -21.809097344326723      -0.91252837218905136        95.164800000000000     
  -20.000000000000000       -1.2905100000000000        95.164800000000000     
  -18.190902655673277      -0.91252837218905170        95.164800000000000     
  -17.278050000000000        0.0000000000000000        97.233599999999996     