variables="x","y","z","u","v","w","load_fx","load_fy","load_fz","flow_u","flow_v","flow_w","AOA"
 ZONE t = "whisker load points"
 DATAPACKING=block
 zonetype =FELINESEG
 N=           7 , E=           6
 strandid =            3
 solutiontime =   0.0000000000000000     
PASSIVEVARLIST=[4,5,6,7,8,9,10,11,12,13,]
  1.500000000000E+02  1.500000000000E+02  1.500000000000E+02  1.500000000000E+02  1.500000000000E+02  1.500000000000E+02  1.500000000000E+02
  5.500000000000E+02  5.500000000000E+02  5.500000000000E+02  5.500000000000E+02  5.500000000000E+02  5.500000000000E+02  5.500000000000E+02
  1.034400000000E+01  3.103200000000E+01  5.172000000000E+01  7.240800000000E+01  9.309600000000E+01  1.137840000000E+02  1.344720000000E+02
           1           2
           2           3
           3           4
           4           5
           5           6
           6           7
 ZONE t = "whisker load points"
 DATAPACKING=block
 zonetype =FELINESEG
 N=           7 , E=           6
 strandid =            3
 solutiontime =   12.500000000000000     
 VARSHARELIST = ([1]=1,[2]=1,[3]=1)
 CONNECTIVITYSHAREZONE =           1
 -7.867546282377E-08 -7.216513563482E-07 -1.850782250462E-06 -3.317650366472E-06 -4.996927299502E-06 -6.789282109630E-06 -8.624779572828E-06
 -7.018020532906E-07 -5.787857902064E-06 -1.468068228825E-05 -2.610513157518E-05 -3.904842048436E-05 -5.276133139563E-05 -6.675416240114E-05
 -3.258280052663E-14 -7.127758931799E-13 -2.673406470844E-12 -5.885233752784E-12 -1.000395661385E-11 -1.462892885259E-11 -1.944668227498E-11
 -2.242917987213E-04 -2.242714430230E-04 -2.242372796981E-04 -2.241957019575E-04 -2.241512594998E-04 -2.241063911888E-04 -2.240618448816E-04
 -4.729671247286E-04 -4.727843231754E-04 -4.724707226688E-04 -4.720785653321E-04 -4.716476793955E-04 -4.712026186877E-04 -4.707547844179E-04
  0.000000000000E+00  0.000000000000E+00  0.000000000000E+00  0.000000000000E+00  0.000000000000E+00  0.000000000000E+00  0.000000000000E+00
 -2.949692996327E-03 -2.949693088817E-03 -2.949693250468E-03 -2.949693457928E-03 -2.949693692742E-03 -2.949693941348E-03 -2.949694194943E-03
 -1.843817283056E-03 -1.843817362084E-03 -1.843817500359E-03 -1.843817678320E-03 -1.843817880284E-03 -1.843818094519E-03 -1.843818313257E-03
  0.000000000000E+00  0.000000000000E+00  0.000000000000E+00  0.000000000000E+00  0.000000000000E+00  0.000000000000E+00  0.000000000000E+00
  3.200775191201E+01  3.199834451744E+01  3.198209118902E+01  3.196159128005E+01  3.193887422579E+01  3.191524472629E+01  3.189136399416E+01
 ZONE t = "whisker load points"
 DATAPACKING=block
 zonetype =FELINESEG
 N=           7 , E=           6
 strandid =            3
 solutiontime =   25.000000000000000     
 VARSHARELIST = ([1]=1,[2]=1,[3]=1)
 CONNECTIVITYSHAREZONE =           1
 -1.988239137313E-04 -1.830696839014E-03 -4.692472534885E-03 -8.406381545394E-03 -1.265483907907E-02 -1.718701915226E-02 -2.182691823897E-02
 -2.499075149814E-05 -2.037260144085E-04 -5.107204561970E-04 -8.984860554266E-04 -1.331536269787E-03 -1.785690764464E-03 -2.246747362775E-03
 -3.335631831934E-09 -7.307121357115E-08 -2.757528429898E-07 -6.136792094317E-07 -1.054324287961E-06 -1.555035526451E-06 -2.079540469745E-06
 -6.151769597195E-01 -6.145624906316E-01 -6.134365791559E-01 -6.119077168868E-01 -6.100887965249E-01 -6.080948098793E-01 -6.060275657169E-01
 -2.446535860019E-02 -2.419713465443E-02 -2.367463557605E-02 -2.293156104036E-02 -2.201888832190E-02 -2.099986737997E-02 -1.993543464566E-02
  0.000000000000E+00 -6.885084121662E-05 -9.943724215158E-05 -1.194639691685E-04 -1.308718170613E-04 -1.358350653249E-04 -1.367660459573E-04
 -3.011818671162E-03 -3.011802076628E-03 -3.011772843167E-03 -3.011734686935E-03 -3.011690822840E-03 -3.011643868678E-03 -3.011595717867E-03
 -1.813190538505E-03 -1.813226230187E-03 -1.813288742549E-03 -1.813369738313E-03 -1.813462263101E-03 -1.813560871679E-03 -1.813661777087E-03
  0.000000000000E+00  0.000000000000E+00  0.000000000000E+00  0.000000000000E+00  0.000000000000E+00  0.000000000000E+00  0.000000000000E+00
  4.894288506252E-01  4.845270388164E-01  4.748960448147E-01  4.610861932821E-01  4.439910897572E-01  4.247631637685E-01  4.045395086793E-01
 ZONE t = "whisker load points"
 DATAPACKING=block
 zonetype =FELINESEG
 N=           7 , E=           6
 strandid =            3
 solutiontime =   37.500000000000000     
 VARSHARELIST = ([1]=1,[2]=1,[3]=1)
 CONNECTIVITYSHAREZONE =           1
 -8.520638467797E-05 -7.608626339690E-04 -1.902604198572E-03 -3.336368722332E-03 -4.934418340209E-03 -6.609703290711E-03 -8.309916180635E-03
 -5.345780681583E-05 -4.460949405475E-04 -1.141702342108E-03 -2.046012885643E-03 -3.080182510339E-03 -4.182694163660E-03 -5.311162831848E-03
 -7.677763083599E-10 -1.647770240368E-08 -6.019298302137E-08 -1.301223122133E-07 -2.183470781335E-07 -3.164148349283E-07 -4.180328446021E-07
 -6.156027912059E-01 -6.158766192052E-01 -6.163822516662E-01 -6.170696722211E-01 -6.178847462499E-01 -6.187746498602E-01 -6.196959756296E-01
 -2.402070545513E-02 -2.395936940997E-02 -2.383685851617E-02 -2.365513944509E-02 -2.342065785721E-02 -2.314768193079E-02 -2.285533607246E-02
  0.000000000000E+00  0.000000000000E+00  0.000000000000E+00  0.000000000000E+00  0.000000000000E+00  0.000000000000E+00  0.000000000000E+00
 -3.074222625182E-03 -3.074222638128E-03 -3.074223335959E-03 -3.074224860194E-03 -3.074227111344E-03 -3.074229857725E-03 -3.074232846010E-03
 -1.780788618554E-03 -1.780807679413E-03 -1.780840280340E-03 -1.780881595044E-03 -1.780927963879E-03 -1.780976797940E-03 -1.781026475468E-03
  0.000000000000E+00  0.000000000000E+00  0.000000000000E+00  0.000000000000E+00  0.000000000000E+00  0.000000000000E+00  0.000000000000E+00
  4.801637242451E-01  4.787188768716E-01  4.758689410265E-01  4.716985362085E-01  4.663858961832E-01  4.602633540949E-01  4.537498789453E-01
 ZONE t = "whisker load points"
 DATAPACKING=block
 zonetype =FELINESEG
 N=           7 , E=           6
 strandid =            3
 solutiontime =   50.000000000000000     
 VARSHARELIST = ([1]=1,[2]=1,[3]=1)
 CONNECTIVITYSHAREZONE =           1
 -1.843429194968E-04 -1.692544293794E-03 -4.328208763400E-03 -7.737960605307E-03 -1.162874666128E-02 -1.577238759257E-02 -2.001096409444E-02
 -4.049636422596E-05 -3.360126630304E-04 -8.558074083937E-04 -1.527346465438E-03 -2.291650697627E-03 -3.103911274184E-03 -3.933980985824E-03
 -2.957765798082E-09 -6.411139877454E-08 -2.409371353995E-07 -5.343943905871E-07 -9.156036003502E-07 -1.347644105701E-06 -1.799615207281E-06
 -6.158771482528E-01 -6.158080554411E-01 -6.156915757110E-01 -6.155490934434E-01 -6.153973989348E-01 -6.152457743171E-01 -6.150962907157E-01
 -2.359023145194E-02 -2.382138391420E-02 -2.423958680810E-02 -2.479314150800E-02 -2.543416393948E-02 -2.612202699114E-02 -2.682759409575E-02
  0.000000000000E+00 -6.386998374446E-05 -9.210997904904E-05 -1.106351208864E-04 -1.213227407511E-04 -1.261986112749E-04 -1.274567595963E-04
 -3.135455655674E-03 -3.135443708117E-03 -3.135422901635E-03 -3.135395964294E-03 -3.135365183640E-03 -3.135332364771E-03 -3.135298775554E-03
 -1.748588737403E-03 -1.748624796884E-03 -1.748687853404E-03 -1.748769418874E-03 -1.748862468372E-03 -1.748961545505E-03 -1.749062884364E-03
  0.000000000000E+00  0.000000000000E+00  0.000000000000E+00  0.000000000000E+00  0.000000000000E+00  0.000000000000E+00  0.000000000000E+00
  4.713135463626E-01  4.760039894041E-01  4.844868513508E-01  4.957125380686E-01  5.087101073792E-01  5.226582052856E-01  5.369705435441E-01
 ZONE t = "whisker load points"
 DATAPACKING=block
 zonetype =FELINESEG
 N=           7 , E=           6
 strandid =            3
 solutiontime =   62.499999999999993     
 VARSHARELIST = ([1]=1,[2]=1,[3]=1)
 CONNECTIVITYSHAREZONE =           1
 -1.030810924473E-04 -9.280448414648E-04 -2.335662664233E-03 -4.118152211328E-03 -6.117666514443E-03 -8.222634737990E-03 -1.036339120590E-02
 -2.139303352800E-05 -1.737262518808E-04 -4.342461707789E-04 -7.623141238938E-04 -1.128099286936E-03 -1.511458591076E-03 -1.900520186490E-03
 -9.026136138934E-10 -1.912337745434E-08 -6.951924658741E-08 -1.497546153902E-07 -2.505495127025E-07 -3.621867722621E-07 -4.776278477226E-07
 -6.161914603703E-01 -6.161417990608E-01 -6.160547900556E-01 -6.159419378920E-01 -6.158128483316E-01 -6.156751570600E-01 -6.155342287177E-01
 -2.308047782289E-02 -2.312706494309E-02 -2.321431383380E-02 -2.333419734681E-02 -2.347823984904E-02 -2.363754902028E-02 -2.380377831898E-02
  0.000000000000E+00  0.000000000000E+00  0.000000000000E+00  0.000000000000E+00 -6.194454942802E-05 -6.386969457978E-05 -6.428486409624E-05
 -3.196615011071E-03 -3.196608532284E-03 -3.196597490582E-03 -3.196583467495E-03 -3.196567687540E-03 -3.196551037107E-03 -3.196534085283E-03
 -1.715252058756E-03 -1.715272132410E-03 -1.715306391447E-03 -1.715349753277E-03 -1.715398368885E-03 -1.715449528606E-03 -1.715501548690E-03
  0.000000000000E+00  0.000000000000E+00  0.000000000000E+00  0.000000000000E+00  0.000000000000E+00  0.000000000000E+00  0.000000000000E+00
  4.608532795754E-01  4.618244919540E-01  4.636393223257E-01  4.661288078870E-01  4.691163549443E-01  4.724182549992E-01  4.758632245396E-01
 ZONE t = "whisker load points"
 DATAPACKING=block
 zonetype =FELINESEG
 N=           7 , E=           6
 strandid =            3
 solutiontime =   75.000000000000000     
 VARSHARELIST = ([1]=1,[2]=1,[3]=1)
 CONNECTIVITYSHAREZONE =           1
 -1.669729325313E-04 -1.529121835310E-03 -3.902192481793E-03 -6.963805559343E-03 -1.044972022960E-02 -1.415669813193E-02 -1.794580114708E-02
 -2.508028134458E-05 -2.073435795494E-04 -5.266513675320E-04 -9.379841469784E-04 -1.405330102926E-03 -1.901601213386E-03 -2.408636000231E-03
 -2.360631599657E-09 -5.117618167710E-08 -1.915509984563E-07 -4.232917708434E-07 -7.230881876252E-07 -1.061921396336E-06 -1.415895599927E-06
 -6.146586375312E-01 -6.147753036549E-01 -6.149850425227E-01 -6.152636692787E-01 -6.155883858205E-01 -6.159391214196E-01 -6.163004204726E-01
 -1.746976066697E-02 -1.733715374522E-02 -1.710742590601E-02 -1.681743210443E-02 -1.649577613806E-02 -1.616109403726E-02 -1.582287219350E-02
  0.000000000000E+00  0.000000000000E+00 -8.239613769761E-05 -9.876434085675E-05 -1.081598998919E-04 -1.124425766012E-04 -1.135767058942E-04
 -3.251936203209E-03 -3.251927773030E-03 -3.251913128281E-03 -3.251894219045E-03 -3.251872664755E-03 -3.251849725481E-03 -3.251826271134E-03
 -1.677638857169E-03 -1.677672742711E-03 -1.677731793213E-03 -1.677807971813E-03 -1.677894699369E-03 -1.677986921262E-03 -1.678081185327E-03
  0.000000000000E+00  0.000000000000E+00  0.000000000000E+00  0.000000000000E+00  0.000000000000E+00  0.000000000000E+00  0.000000000000E+00
  3.493644051822E-01  3.466387419214E-01  3.419153138982E-01  3.359502913730E-01  3.293326030307E-01  3.224483498196E-01  3.154965372421E-01
 ZONE t = "whisker load points"
 DATAPACKING=block
 zonetype =FELINESEG
 N=           7 , E=           6
 strandid =            3
 solutiontime =   87.500000000000014     
 VARSHARELIST = ([1]=1,[2]=1,[3]=1)
 CONNECTIVITYSHAREZONE =           1
 -1.182426975680E-04 -1.070836594162E-03 -2.708185438582E-03 -4.795516695094E-03 -7.149766158106E-03 -9.637458526039E-03 -1.217222697818E-02
 -2.851126848638E-05 -2.368817159783E-04 -6.042530163641E-04 -1.080184014392E-03 -1.623330187371E-03 -2.201786734491E-03 -2.793613578191E-03
 -1.199876452251E-09 -2.572696439156E-08 -9.463986076388E-08 -2.059817231151E-07 -3.475253145356E-07 -5.056254710794E-07 -6.698224120745E-07
 -6.148437547645E-01 -6.146796377313E-01 -6.143849000571E-01 -6.139947610933E-01 -6.135419622658E-01 -6.130545482605E-01 -6.125535088245E-01
 -1.686727456670E-02 -1.693417658730E-02 -1.705875370612E-02 -1.723043785722E-02 -1.743761184893E-02 -1.766728256656E-02 -1.790691442576E-02
  0.000000000000E+00  0.000000000000E+00  0.000000000000E+00 -6.706121194274E-05 -7.277943203699E-05 -7.521705692822E-05 -7.574763841744E-05
 -3.304593594788E-03 -3.304590026586E-03 -3.304584115827E-03 -3.304576763626E-03 -3.304568624121E-03 -3.304560131911E-03 -3.304551537074E-03
 -1.639357022997E-03 -1.639381932445E-03 -1.639424832071E-03 -1.639479591452E-03 -1.639541411918E-03 -1.639606778513E-03 -1.639673404949E-03
  0.000000000000E+00  0.000000000000E+00  0.000000000000E+00  0.000000000000E+00  0.000000000000E+00  0.000000000000E+00  0.000000000000E+00
  3.371795576443E-01  3.386114090933E-01  3.412737150957E-01  3.449380899980E-01  3.493561682707E-01  3.542535758403E-01  3.593677081917E-01
 ZONE t = "whisker load points"
 DATAPACKING=block
 zonetype =FELINESEG
 N=           7 , E=           6
 strandid =            3
 solutiontime =   100.00000000000000     
 VARSHARELIST = ([1]=1,[2]=1,[3]=1)
 CONNECTIVITYSHAREZONE =           1
 -1.538560805564E-04 -1.405801155339E-03 -3.581002762160E-03 -6.380733658751E-03 -9.562617824651E-03 -1.294214643371E-02 -1.639444554580E-02
 -2.375249722799E-05 -1.965637681328E-04 -4.997055841128E-04 -8.906552709508E-04 -1.335216883268E-03 -1.807534579665E-03 -2.290193775116E-03
 -1.997803101469E-09 -4.321516881256E-08 -1.611542921830E-07 -3.549691676138E-07 -6.047969277028E-07 -8.864724880191E-07 -1.180381015062E-06
 -6.150923491420E-01 -6.152769046597E-01 -6.156087824133E-01 -6.160486987164E-01 -6.165601509417E-01 -6.171116639190E-01 -6.176794138270E-01
 -1.622165057851E-02 -1.621568323505E-02 -1.620651688780E-02 -1.619575246709E-02 -1.618471428541E-02 -1.617417567877E-02 -1.616419150864E-02
  0.000000000000E+00  0.000000000000E+00 -7.551030653161E-05 -9.034769115125E-05 -9.882666221091E-05 -1.026872694108E-04 -1.037291001722E-04
 -3.355633527702E-03 -3.355626629976E-03 -3.355614716054E-03 -3.355599399875E-03 -3.355581998403E-03 -3.355563518528E-03 -3.355544643820E-03
 -1.600217769211E-03 -1.600249956129E-03 -1.600305905137E-03 -1.600377925113E-03 -1.600459778487E-03 -1.600546718424E-03 -1.600635533008E-03
  0.000000000000E+00  0.000000000000E+00  0.000000000000E+00  0.000000000000E+00  0.000000000000E+00  0.000000000000E+00  0.000000000000E+00
  3.241066553841E-01  3.238896543807E-01  3.235310878657E-01  3.230841066857E-01  3.225947578219E-01  3.220952314063E-01  3.215991843590E-01
 ZONE t = "whisker load points"
 DATAPACKING=block
 zonetype =FELINESEG
 N=           7 , E=           6
 strandid =            3
 solutiontime =   112.50000000000001     
 VARSHARELIST = ([1]=1,[2]=1,[3]=1)
 CONNECTIVITYSHAREZONE =           1
 -1.292211690970E-04 -1.174074575908E-03 -2.977155228034E-03 -5.283971124833E-03 -7.893186368575E-03 -1.065561223660E-02 -1.347302856360E-02
 -1.972302230066E-05 -1.624228128928E-04 -4.111504371027E-04 -7.300601891738E-04 -1.090999283260E-03 -1.473238664203E-03 -1.863207417776E-03
 -1.397898535452E-09 -3.004731680618E-08 -1.109896287143E-07 -2.424557264958E-07 -4.103228058776E-07 -5.983874467249E-07 -7.939967487444E-07
 -6.152544351384E-01 -6.150863826526E-01 -6.147844454217E-01 -6.143845852367E-01 -6.139201575178E-01 -6.134198641940E-01 -6.129053526980E-01
 -1.556915034749E-02 -1.562830905447E-02 -1.573361958555E-02 -1.587169799590E-02 -1.603060136883E-02 -1.620056106834E-02 -1.637464790035E-02
  0.000000000000E+00  0.000000000000E+00 -6.231722053353E-05 -7.405486952710E-05 -8.055410207709E-05 -8.336290454775E-05 -8.398925263433E-05
 -3.406762915612E-03 -3.406757557420E-03 -3.406748372437E-03 -3.406736638265E-03 -3.406723370865E-03 -3.406709326454E-03 -3.406695004890E-03
 -1.559521355802E-03 -1.559548731361E-03 -1.559595994333E-03 -1.559656467899E-03 -1.559724871525E-03 -1.559797293398E-03 -1.559871158708E-03
  0.000000000000E+00  0.000000000000E+00  0.000000000000E+00  0.000000000000E+00  0.000000000000E+00  0.000000000000E+00  0.000000000000E+00
  3.109533468439E-01  3.122235124635E-01  3.144877989166E-01  3.174621845963E-01  3.208923782911E-01  3.245690930208E-01  3.283426601351E-01
 ZONE t = "whisker load points"
 DATAPACKING=block
 zonetype =FELINESEG
 N=           7 , E=           6
 strandid =            3
 solutiontime =   125.00000000000000     
 VARSHARELIST = ([1]=1,[2]=1,[3]=1)
 CONNECTIVITYSHAREZONE =           1
 -1.451556577530E-04 -1.323969119374E-03 -3.367768821658E-03 -5.993444017119E-03 -8.973103555795E-03 -1.213470687448E-02 -1.536279283659E-02
 -1.654450123285E-05 -1.376214037309E-04 -3.514586602236E-04 -6.289821028466E-04 -9.462130537296E-04 -1.284477950772E-03 -1.630791411880E-03
 -1.760067235379E-09 -3.796302559551E-08 -1.411410827704E-07 -3.100922716439E-07 -5.272588619011E-07 -7.716473768234E-07 -1.026408973748E-06
 -6.148966918805E-01 -6.150495619241E-01 -6.153258424812E-01 -6.156939995062E-01 -6.161239556239E-01 -6.165890054029E-01 -6.170684261122E-01
 -9.339110825341E-03 -9.295231845903E-03 -9.223586043162E-03 -9.138265260836E-03 -9.048668752182E-03 -8.959180105785E-03 -8.870596294985E-03
  0.000000000000E+00  0.000000000000E+00 -7.070299416228E-05 -8.444165026699E-05 -9.223851500252E-05 -9.575710472658E-05 -9.668698903263E-05
 -3.451260161286E-03 -3.451256721655E-03 -3.451250859817E-03 -3.451243401538E-03 -3.451234996567E-03 -3.451226120621E-03 -3.451217081263E-03
 -1.517259098096E-03 -1.517290492279E-03 -1.517344944606E-03 -1.517414915702E-03 -1.517494333560E-03 -1.517578611073E-03 -1.517664667157E-03
  0.000000000000E+00  0.000000000000E+00  0.000000000000E+00  0.000000000000E+00  0.000000000000E+00  0.000000000000E+00  0.000000000000E+00
  1.864370895326E-01  1.855135645324E-01  1.839986643292E-01  1.821848338761E-01  1.802697941602E-01  1.783494698327E-01  1.764460113709E-01
 ZONE t = "whisker load points"
 DATAPACKING=block
 zonetype =FELINESEG
 N=           7 , E=           6
 strandid =            3
 solutiontime =   137.50000000000003     
 VARSHARELIST = ([1]=1,[2]=1,[3]=1)
 CONNECTIVITYSHAREZONE =           1
 -1.357678500947E-04 -1.235662787971E-03 -3.137655686724E-03 -5.575496019995E-03 -8.336935185878E-03 -1.126339426695E-02 -1.424957002441E-02
 -9.923150969850E-06 -8.150660729995E-05 -2.059060980718E-04 -3.650553595361E-04 -5.449401063596E-04 -7.353168128983E-04 -9.294838566269E-04
 -1.526560910682E-09 -3.282674835161E-08 -1.215677114797E-07 -2.661881652180E-07 -4.513745357691E-07 -6.592400069616E-07 -8.756509244412E-07
 -6.149951978137E-01 -6.148792765020E-01 -6.146713551792E-01 -6.143965519634E-01 -6.140780784169E-01 -6.137356400033E-01 -6.133838114350E-01
 -8.649597418076E-03 -8.754780546187E-03 -8.945350045948E-03 -9.200182538538E-03 -9.499397886073E-03 -9.824669499608E-03 -1.016084086524E-02
  0.000000000000E+00  0.000000000000E+00 -6.561263548709E-05 -7.811719799830E-05 -8.509756984488E-05 -8.815128827808E-05 -8.886119956642E-05
 -3.496023242225E-03 -3.496019479037E-03 -3.496012987469E-03 -3.496004658591E-03 -3.495995213067E-03 -3.495985195452E-03 -3.495974970122E-03
 -1.476435339915E-03 -1.476464876340E-03 -1.476515955753E-03 -1.476581424796E-03 -1.476655582958E-03 -1.476734172280E-03 -1.476814365744E-03
  0.000000000000E+00  0.000000000000E+00  0.000000000000E+00  0.000000000000E+00  0.000000000000E+00  0.000000000000E+00  0.000000000000E+00
  1.726245197479E-01  1.747598038981E-01  1.786301245483E-01  1.838090946893E-01  1.898952557017E-01  1.965180783042E-01  2.033706868247E-01
 ZONE t = "whisker load points"
 DATAPACKING=block
 zonetype =FELINESEG
 N=           7 , E=           6
 strandid =            3
 solutiontime =   150.00000000000000     
 VARSHARELIST = ([1]=1,[2]=1,[3]=1)
 CONNECTIVITYSHAREZONE =           1
 -1.404301744994E-04 -1.279506792072E-03 -3.251882449511E-03 -5.782926262373E-03 -8.652624112961E-03 -1.169572066675E-02 -1.480187857717E-02
 -1.000595010035E-05 -8.244383689487E-05 -2.088190577945E-04 -3.710253203616E-04 -5.548035434424E-04 -7.495987667143E-04 -9.484454801854E-04
 -1.635102166254E-09 -3.520686932140E-08 -1.306274329163E-07 -2.864959678873E-07 -4.864567463615E-07 -7.111870158858E-07 -9.453013736448E-07
 -6.151458309528E-01 -6.152408493386E-01 -6.154113248693E-01 -6.156369339549E-01 -6.158989171645E-01 -6.161812130400E-01 -6.164717052500E-01
 -7.900075273111E-03 -7.818325377130E-03 -7.670208095584E-03 -7.472877525493E-03 -7.242768916450E-03 -6.994383345409E-03 -6.738676347341E-03
  0.000000000000E+00  0.000000000000E+00 -6.815089449458E-05 -8.128915897398E-05 -8.870191552318E-05 -9.201573715222E-05 -9.286404830376E-05
 -3.540641315995E-03 -3.540637661091E-03 -3.540631357420E-03 -3.540623268685E-03 -3.540614093443E-03 -3.540604360615E-03 -3.540594425605E-03
 -1.434195880866E-03 -1.434226732226E-03 -1.434280158020E-03 -1.434348717260E-03 -1.434426449948E-03 -1.434508880129E-03 -1.434593019636E-03
  0.000000000000E+00  0.000000000000E+00  0.000000000000E+00  0.000000000000E+00  0.000000000000E+00  0.000000000000E+00  0.000000000000E+00
  1.576073284064E-01  1.559501386564E-01  1.529494291354E-01  1.489548867573E-01  1.443011151914E-01  1.392826686846E-01  1.341215698369E-01
 ZONE t = "whisker load points"
 DATAPACKING=block
 zonetype =FELINESEG
 N=           7 , E=           6
 strandid =            3
 solutiontime =   162.50000000000000     
 VARSHARELIST = ([1]=1,[2]=1,[3]=1)
 CONNECTIVITYSHAREZONE =           1
 -1.390869644031E-04 -1.266866063370E-03 -3.218932352921E-03 -5.723066691606E-03 -8.561497843688E-03 -1.157090377871E-02 -1.464240736874E-02
 -1.205945638412E-05 -1.001456127818E-04 -2.553327526631E-04 -4.562153650777E-04 -6.852882010072E-04 -9.291006194744E-04 -1.178461552807E-03
 -1.606045595262E-09 -3.458036980397E-08 -1.282504859371E-07 -2.811759852616E-07 -4.772746781666E-07 -6.975990807761E-07 -9.270905791586E-07
 -6.152505174071E-01 -6.151713172738E-01 -6.150287101557E-01 -6.148394825941E-01 -6.146193034967E-01 -6.143817842121E-01 -6.141372991296E-01
 -7.169090409479E-03 -7.210190464799E-03 -7.282512303580E-03 -7.376424743889E-03 -7.483608310367E-03 -7.597557136647E-03 -7.713916516119E-03
  0.000000000000E+00  0.000000000000E+00 -6.740630143231E-05 -8.032535731346E-05 -8.756571694611E-05 -9.075252296609E-05 -9.150927753798E-05
 -3.585831281095E-03 -3.585828684358E-03 -3.585824263312E-03 -3.585818640521E-03 -3.585812303705E-03 -3.585805609960E-03 -3.585798460984E-03
 -1.390705637479E-03 -1.390736748589E-03 -1.390790611474E-03 -1.390859716412E-03 -1.390938053951E-03 -1.391021115610E-03 -1.391105648872E-03
  0.000000000000E+00  0.000000000000E+00  0.000000000000E+00  0.000000000000E+00  0.000000000000E+00  0.000000000000E+00  0.000000000000E+00
  1.429821135423E-01  1.438213559683E-01  1.452994571508E-01  1.472208675682E-01  1.494163457303E-01  1.517530647700E-01  1.541416641960E-01
 ZONE t = "whisker load points"
 DATAPACKING=block
 zonetype =FELINESEG
 N=           7 , E=           6
 strandid =            3
 solutiontime =   175.00000000000003     
 VARSHARELIST = ([1]=1,[2]=1,[3]=1)
 CONNECTIVITYSHAREZONE =           1
 -1.400701471983E-04 -1.275779776166E-03 -3.241498689610E-03 -5.763064762725E-03 -8.621181505229E-03 -1.165140392177E-02 -1.474411971238E-02
 -5.116765258418E-06 -4.335260763051E-05 -1.124890555810E-04 -2.041350103922E-04 -3.106796896146E-04 -4.255923482551E-04 -5.438973255680E-04
 -1.621834696762E-09 -3.489807079513E-08 -1.294076519947E-07 -2.836883592920E-07 -4.815126659692E-07 -7.037671485308E-07 -9.352631388187E-07
 -6.204650547975E-01 -6.205402753037E-01 -6.206774491635E-01 -6.208615495111E-01 -6.210777428957E-01 -6.213124168217E-01 -6.215547360738E-01
 -8.056400570280E-04 -8.554698757510E-04 -9.535344774639E-04 -1.093895257997E-03 -1.267275749558E-03 -1.461809725050E-03 -1.665863262675E-03
  0.000000000000E+00  0.000000000000E+00 -6.843860900396E-05 -8.160166110351E-05 -8.901733260011E-05 -9.232570589930E-05 -9.316787756384E-05
 -3.626666160315E-03 -3.626665707842E-03 -3.626665006287E-03 -3.626664187722E-03 -3.626663332925E-03 -3.626662479764E-03 -3.626661636348E-03
 -1.345365697503E-03 -1.345397250855E-03 -1.345451868861E-03 -1.345521936152E-03 -1.345601360060E-03 -1.345685570595E-03 -1.345771520625E-03
  0.000000000000E+00  0.000000000000E+00  0.000000000000E+00  0.000000000000E+00  0.000000000000E+00  0.000000000000E+00  0.000000000000E+00
  1.591575431328E-02  1.689825481731E-02  1.883149054501E-02  2.159759564856E-02  2.501278941446E-02  2.884242901888E-02  3.285683404783E-02
 ZONE t = "whisker load points"
 DATAPACKING=block
 zonetype =FELINESEG
 N=           7 , E=           6
 strandid =            3
 solutiontime =   187.50000000000003     
 VARSHARELIST = ([1]=1,[2]=1,[3]=1)
 CONNECTIVITYSHAREZONE =           1
 -1.411133045106E-04 -1.285578893744E-03 -3.267008945951E-03 -5.809364206154E-03 -8.691618451216E-03 -1.174784476986E-02 -1.486731535524E-02
  5.382109017905E-06  4.572092218133E-05  1.187364052020E-04  2.153823833914E-04  3.273988778832E-04  4.478491545596E-04  5.716579978134E-04
 -1.645990382784E-09 -3.544252942896E-08 -1.314843730391E-07 -2.883448628510E-07 -4.895562121940E-07 -7.156758228733E-07 -9.512294779018E-07
 -6.205069266253E-01 -6.204712385858E-01 -6.204261442676E-01 -6.203593091838E-01 -6.202827207086E-01 -6.202011304613E-01 -6.201177224614E-01
  0.000000000000E+00  0.000000000000E+00 -1.802009657624E-04 -3.446517536943E-04 -5.390964754839E-04 -7.517376159500E-04 -9.722769461551E-04
  0.000000000000E+00  0.000000000000E+00 -6.896215757411E-05 -8.220981264707E-05 -8.965145294962E-05 -9.294298543864E-05 -9.374279627892E-05
 -3.667323830543E-03 -3.667321506779E-03 -3.667317394592E-03 -3.667312034963E-03 -3.667305889500E-03 -3.667299325411E-03 -3.667292600302E-03
 -1.298738483727E-03 -1.298770397773E-03 -1.298825648171E-03 -1.298896537136E-03 -1.298976902002E-03 -1.299062117045E-03 -1.299149095760E-03
  0.000000000000E+00  0.000000000000E+00  0.000000000000E+00  0.000000000000E+00  0.000000000000E+00  0.000000000000E+00  0.000000000000E+00
  0.000000000000E+00  0.000000000000E+00  3.559793630728E-03  6.809370994034E-03  1.065272666162E-02  1.485707036690E-02  1.921902448393E-02
 ZONE t = "whisker load points"
 DATAPACKING=block
 zonetype =FELINESEG
 N=           7 , E=           6
 strandid =            3
 solutiontime =   200.00000000000000     
 VARSHARELIST = ([1]=1,[2]=1,[3]=1)
 CONNECTIVITYSHAREZONE =           1
 -1.393267778796E-04 -1.268753698582E-03 -3.223119709001E-03 -5.729575042107E-03 -8.570071504341E-03 -1.158126157684E-02 -1.465437562533E-02
  3.217667087388E-06  2.702365627329E-05  6.950860572553E-05  1.250621743465E-04  1.888535300640E-04  2.570239801435E-04  3.268646597701E-04
 -1.603614030972E-09 -3.448972293077E-08 -1.278411779789E-07 -2.801564888723E-07 -4.753831911101E-07 -6.946598349786E-07 -9.230231350634E-07
 -6.207365326306E-01 -6.207645470846E-01 -6.208148654404E-01 -6.208815847131E-01 -6.209592016375E-01 -6.210429509567E-01 -6.211291880177E-01
  8.606765252011E-04  9.361954911726E-04  1.073657546133E-03  1.257015777876E-03  1.470872455844E-03  1.701661802074E-03  1.939180271588E-03
  0.000000000000E+00  0.000000000000E+00 -6.805020722355E-05 -8.110680679552E-05 -8.844445942012E-05 -9.170094775021E-05 -9.251084452406E-05
 -3.707730262056E-03 -3.707728978698E-03 -3.707726721322E-03 -3.707723795670E-03 -3.707720455898E-03 -3.707716899242E-03 -3.707713261049E-03
 -1.250767842169E-03 -1.250799737866E-03 -1.250854930003E-03 -1.250925713506E-03 -1.251005931008E-03 -1.251090969845E-03 -1.251177758534E-03
  0.000000000000E+00  0.000000000000E+00  0.000000000000E+00  0.000000000000E+00  0.000000000000E+00  0.000000000000E+00  0.000000000000E+00
  1.699574151777E-02  1.848640981524E-02  2.119954788301E-02  2.481807902845E-02  2.903779591603E-02  3.359077469790E-02  3.827558534130E-02
 ZONE t = "whisker load points"
 DATAPACKING=block
 zonetype =FELINESEG
 N=           7 , E=           6
 strandid =            3
 solutiontime =   212.50000000000003     
 VARSHARELIST = ([1]=1,[2]=1,[3]=1)
 CONNECTIVITYSHAREZONE =           1
 -1.414978403948E-04 -1.289158747198E-03 -3.276257669679E-03 -5.826035424732E-03 -8.716832156770E-03 -1.178220423012E-02 -1.491105362400E-02
 -1.367822413911E-06 -1.226132341633E-05 -3.324505556792E-05 -6.248144527410E-05 -9.769114248019E-05 -1.365001344780E-04 -1.768671941816E-04
 -1.653380021112E-09 -3.560029122700E-08 -1.320736929130E-07 -2.896469628963E-07 -4.917808991772E-07 -7.189434473562E-07 -9.555864846581E-07
 -6.209468759691E-01 -6.209260871376E-01 -6.208886841122E-01 -6.208391031546E-01 -6.207814489910E-01 -6.207192768738E-01 -6.206552881867E-01
  1.644432754895E-03  1.635572338384E-03  1.621144573652E-03  1.603831061752E-03  1.585528366183E-03  1.567247650716E-03  1.549230493388E-03
  0.000000000000E+00  0.000000000000E+00 -6.921131149201E-05 -8.251414149219E-05 -8.999041697116E-05 -9.330053988218E-05 -9.410849788463E-05
 -3.747177828423E-03 -3.747177835573E-03 -3.747177907883E-03 -3.747178065683E-03 -3.747178302372E-03 -3.747178594275E-03 -3.747178912706E-03
 -1.205373954238E-03 -1.205406600523E-03 -1.205463126271E-03 -1.205535659476E-03 -1.205617895149E-03 -1.205705098654E-03 -1.205794109517E-03
  0.000000000000E+00  0.000000000000E+00  0.000000000000E+00  0.000000000000E+00  0.000000000000E+00  0.000000000000E+00  0.000000000000E+00
  3.246578556005E-02  3.229188936274E-02  3.200888563211E-02  3.166947449557E-02  3.131087930726E-02  3.095287942295E-02  3.060010678817E-02
 ZONE t = "whisker load points"
 DATAPACKING=block
 zonetype =FELINESEG
 N=           7 , E=           6
 strandid =            3
 solutiontime =   225.00000000000003     
 VARSHARELIST = ([1]=1,[2]=1,[3]=1)
 CONNECTIVITYSHAREZONE =           1
 -1.392921454317E-04 -1.268428945126E-03 -3.222274413514E-03 -5.728039761154E-03 -8.567732970191E-03 -1.157805562873E-02 -1.465027627925E-02
  7.657110907222E-06  6.221554956212E-05  1.555396972890E-04  2.730004402910E-04  4.038294072275E-04  5.408023200538E-04  6.797456882914E-04
 -1.605920849035E-09 -3.453749305178E-08 -1.280082048981E-07 -2.804999365170E-07 -4.759329558402E-07 -6.954260348065E-07 -9.240070773036E-07
 -6.206845619068E-01 -6.207080546192E-01 -6.207511318357E-01 -6.208092465210E-01 -6.208777920425E-01 -6.209524282062E-01 -6.210296173203E-01
  8.141213609241E-03  8.038650263151E-03  7.845608485378E-03  7.579581527379E-03  7.260463820446E-03  6.909121864295E-03  6.543864454053E-03