variables="x","y","z","u","v","w","load_fx","load_fy","load_fz","flow_u","flow_v","flow_w","AOA"
 ZONE t = "whisker load points"
 DATAPACKING=block
 zonetype =FELINESEG
 N=           7 , E=           6
 strandid =            3
 solutiontime =   0.0000000000000000     
PASSIVEVARLIST=[4,5,6,7,8,9,10,11,12,13,]
  1.700000000000E+02  1.700000000000E+02  1.700000000000E+02  1.700000000000E+02  1.700000000000E+02  1.700000000000E+02  1.700000000000E+02
  5.300000000000E+02  5.300000000000E+02  5.300000000000E+02  5.300000000000E+02  5.300000000000E+02  5.300000000000E+02  5.300000000000E+02
  1.034400000000E+01  3.103200000000E+01  5.172000000000E+01  7.240800000000E+01  9.309600000000E+01  1.137840000000E+02  1.344720000000E+02
           1           2
           2           3
           3           4
           4           5
           5           6
           6           7
 ZONE t = "whisker load points"
 DATAPACKING=block
 zonetype =FELINESEG
 N=           7 , E=           6
 strandid =            3
 solutiontime =   12.500000000000000     
 VARSHARELIST = ([1]=1,[2]=1,[3]=1)
 CONNECTIVITYSHAREZONE =           1
 -1.018863956219E-07 -9.345346148456E-07 -2.396704609164E-06 -4.296178437305E-06 -6.470660887808E-06 -8.791536918729E-06 -1.116826275642E-05
 -7.119849586471E-07 -5.871457092873E-06 -1.489189037951E-05 -2.647942752347E-05 -3.960674238267E-05 -5.351410529061E-05 -6.770510443276E-05
 -3.385413519007E-14 -7.407666059423E-13 -2.778399290503E-12 -6.116641326540E-12 -1.039788516859E-11 -1.520571432102E-11 -2.021412711495E-11
 -2.908483750444E-04 -2.907994604702E-04 -2.907163451449E-04 -2.906136108549E-04 -2.905020298440E-04 -2.903878565087E-04 -2.902735884607E-04
 -4.810680167575E-04 -4.808384327338E-04 -4.804442466798E-04 -4.799508005795E-04 -4.794080388091E-04 -4.788469057309E-04 -4.782819298974E-04
  0.000000000000E+00  0.000000000000E+00  0.000000000000E+00  0.000000000000E+00  0.000000000000E+00  0.000000000000E+00  0.000000000000E+00
 -3.666694247188E-03 -3.666694373908E-03 -3.666694595376E-03 -3.666694879601E-03 -3.666695201309E-03 -3.666695541914E-03 -3.666695889359E-03
 -1.643043722628E-03 -1.643043810531E-03 -1.643043964385E-03 -1.643044162585E-03 -1.643044387722E-03 -1.643044626692E-03 -1.643044870761E-03
  0.000000000000E+00  0.000000000000E+00  0.000000000000E+00  0.000000000000E+00  0.000000000000E+00  0.000000000000E+00  0.000000000000E+00
  2.413594786108E+01  2.412709172389E+01  2.411179647844E+01  2.409251364487E+01  2.407115494547E+01  2.404894717517E+01  2.402650999702E+01
 ZONE t = "whisker load points"
 DATAPACKING=block
 zonetype =FELINESEG
 N=           7 , E=           6
 strandid =            3
 solutiontime =   25.000000000000000     
 VARSHARELIST = ([1]=1,[2]=1,[3]=1)
 CONNECTIVITYSHAREZONE =           1
 -2.000815043326E-04 -1.842274351397E-03 -4.722143028324E-03 -8.459527040645E-03 -1.273483350784E-02 -1.729565201664E-02 -2.196486826792E-02
 -2.170006474639E-05 -1.769995273099E-04 -4.439417193144E-04 -7.813580034763E-04 -1.158403885599E-03 -1.553989658403E-03 -1.955671217326E-03
 -3.367336492116E-09 -7.377466182946E-08 -2.784375538738E-07 -6.197209129746E-07 -1.064801863073E-06 -1.570598750522E-06 -2.100453642117E-06
 -6.191052968664E-01 -6.184900388410E-01 -6.173631925272E-01 -6.158336057143E-01 -6.140142769176E-01 -6.120201188611E-01 -6.099527917711E-01
 -2.097013239812E-02 -2.074421480940E-02 -2.030312729920E-02 -1.967477461029E-02 -1.890212468876E-02 -1.803886622489E-02 -1.713686817850E-02
  0.000000000000E+00 -6.964998376720E-05 -1.005979885288E-04 -1.208676456636E-04 -1.324199076398E-04 -1.374522248972E-04 -1.384039630498E-04
 -3.729998435121E-03 -3.729983724930E-03 -3.729957780031E-03 -3.729923862509E-03 -3.729884817893E-03 -3.729842983103E-03 -3.729800062355E-03
 -1.577646286513E-03 -1.577693200079E-03 -1.577775408437E-03 -1.577881991155E-03 -1.578003811485E-03 -1.578133691300E-03 -1.578266621045E-03
  0.000000000000E+00  0.000000000000E+00  0.000000000000E+00  0.000000000000E+00  0.000000000000E+00  0.000000000000E+00  0.000000000000E+00
  4.165895053984E-01  4.124971940521E-01  4.044356450690E-01  3.928540495471E-01  3.784987803660E-01  3.623403838855E-01  3.453394652710E-01
 ZONE t = "whisker load points"
 DATAPACKING=block
 zonetype =FELINESEG
 N=           7 , E=           6
 strandid =            3
 solutiontime =   37.500000000000000     
 VARSHARELIST = ([1]=1,[2]=1,[3]=1)
 CONNECTIVITYSHAREZONE =           1
 -8.578670583604E-05 -7.660600109152E-04 -1.915633021186E-03 -3.359265834874E-03 -4.968345008502E-03 -6.655214414256E-03 -8.367195205360E-03
 -4.567577193009E-05 -3.812322098104E-04 -9.758630648173E-04 -1.749068146120E-03 -2.633451345654E-03 -3.576378994307E-03 -4.541556261283E-03
 -7.192876243235E-10 -1.549726534181E-08 -5.645086257094E-08 -1.217259756778E-07 -2.038586267492E-07 -2.949841207687E-07 -3.893180733121E-07
 -6.195563705967E-01 -6.198347978328E-01 -6.203490197181E-01 -6.210482880234E-01 -6.218776539901E-01 -6.227833961787E-01 -6.237212596828E-01
 -2.029050101901E-02 -2.024293119241E-02 -2.014659964109E-02 -2.000179959874E-02 -1.981299494182E-02 -1.959172093334E-02 -1.935400489007E-02
  0.000000000000E+00  0.000000000000E+00  0.000000000000E+00  0.000000000000E+00  0.000000000000E+00  0.000000000000E+00  0.000000000000E+00
 -3.800688546698E-03 -3.800690240912E-03 -3.800693881069E-03 -3.800699198087E-03 -3.800705760276E-03 -3.800713084645E-03 -3.800720749486E-03
 -1.529238019299E-03 -1.529260942680E-03 -1.529299993928E-03 -1.529349335816E-03 -1.529404589612E-03 -1.529462694717E-03 -1.529521758695E-03
  0.000000000000E+00  0.000000000000E+00  0.000000000000E+00  0.000000000000E+00  0.000000000000E+00  0.000000000000E+00  0.000000000000E+00
  4.027476163803E-01  4.016190929355E-01  3.993689806215E-01  3.960410479062E-01  3.917653588021E-01  3.868105277961E-01  3.815256020969E-01
 ZONE t = "whisker load points"
 DATAPACKING=block
 zonetype =FELINESEG
 N=           7 , E=           6
 strandid =            3
 solutiontime =   50.000000000000000     
 VARSHARELIST = ([1]=1,[2]=1,[3]=1)
 CONNECTIVITYSHAREZONE =           1
 -1.854957667403E-04 -1.703121114695E-03 -4.355239351332E-03 -7.786260371831E-03 -1.170130111482E-02 -1.587076243917E-02 -2.013574571221E-02
 -3.376444514469E-05 -2.801540311552E-04 -7.135278454667E-04 -1.273396868197E-03 -1.910579270371E-03 -2.587717749183E-03 -3.279687289799E-03
 -2.960990176190E-09 -6.416238631290E-08 -2.411071437007E-07 -5.347689844707E-07 -9.162614402658E-07 -1.348640978034E-06 -1.800975082413E-06
 -6.198512360519E-01 -6.197778335420E-01 -6.196536010434E-01 -6.195009199322E-01 -6.193374923533E-01 -6.191733418738E-01 -6.190110376017E-01
 -1.963361463582E-02 -1.983826000806E-02 -2.020819674461E-02 -2.069750055633E-02 -2.126378347980E-02 -2.187120797879E-02 -2.249415158110E-02
  0.000000000000E+00 -6.452869633511E-05 -9.305520821566E-05 -1.117637346232E-04 -1.225519373260E-04 -1.274676318861E-04 -1.287282723547E-04
 -3.869505158724E-03 -3.869495544091E-03 -3.869478822805E-03 -3.869457167786E-03 -3.869432409153E-03 -3.869405998793E-03 -3.869378962492E-03
 -1.481759690249E-03 -1.481806179381E-03 -1.481887452357E-03 -1.481992586378E-03 -1.482112534423E-03 -1.482240262793E-03 -1.482370911731E-03
  0.000000000000E+00  0.000000000000E+00  0.000000000000E+00  0.000000000000E+00  0.000000000000E+00  0.000000000000E+00  0.000000000000E+00
  3.894801099838E-01  3.936000230817E-01  4.010452805637E-01  4.108911635391E-01  4.222850516621E-01  4.345079911048E-01  4.470481837358E-01
 ZONE t = "whisker load points"
 DATAPACKING=block
 zonetype =FELINESEG
 N=           7 , E=           6
 strandid =            3
 solutiontime =   62.499999999999993     
 VARSHARELIST = ([1]=1,[2]=1,[3]=1)
 CONNECTIVITYSHAREZONE =           1
 -1.037737879164E-04 -9.342909941831E-04 -2.351403193556E-03 -4.145937181688E-03 -6.158982028103E-03 -8.278208594110E-03 -1.043347313830E-02
 -1.701731290456E-05 -1.379823548386E-04 -3.444258733633E-04 -6.038787631435E-04 -8.926766686659E-04 -1.194994637989E-03 -1.501625494898E-03
 -9.031724621813E-10 -1.913945478137E-08 -6.957689651076E-08 -1.498858977311E-07 -2.507840131724E-07 -3.625440137116E-07 -4.781158438520E-07
 -6.201867010132E-01 -6.201360675315E-01 -6.200472442141E-01 -6.199319030961E-01 -6.197998278121E-01 -6.196588397009E-01 -6.195144743390E-01
 -1.890228388917E-02 -1.894476419917E-02 -1.902392111400E-02 -1.913221778511E-02 -1.926190257983E-02 -1.940501043845E-02 -1.955416761701E-02
  0.000000000000E+00  0.000000000000E+00  0.000000000000E+00  0.000000000000E+00 -6.261098018640E-05 -6.455632384752E-05 -6.497494574543E-05
 -3.938151292578E-03 -3.938145829475E-03 -3.938136508752E-03 -3.938124647020E-03 -3.938111274222E-03 -3.938097145114E-03 -3.938082750967E-03
 -1.432910311756E-03 -1.432936056186E-03 -1.432979985258E-03 -1.433035593752E-03 -1.433097950084E-03 -1.433163577696E-03 -1.433230312703E-03
  0.000000000000E+00  0.000000000000E+00  0.000000000000E+00  0.000000000000E+00  0.000000000000E+00  0.000000000000E+00  0.000000000000E+00
  3.747229798809E-01  3.755985542678E-01  3.772271244019E-01  3.794522476507E-01  3.821142906237E-01  3.850503515352E-01  3.881104763522E-01
 ZONE t = "whisker load points"
 DATAPACKING=block
 zonetype =FELINESEG
 N=           7 , E=           6
 strandid =            3
 solutiontime =   75.000000000000000     
 VARSHARELIST = ([1]=1,[2]=1,[3]=1)
 CONNECTIVITYSHAREZONE =           1
 -1.678009663832E-04 -1.536691891098E-03 -3.921483389207E-03 -6.998189390787E-03 -1.050126245093E-02 -1.422646777432E-02 -1.803419194368E-02
 -1.730870150719E-05 -1.435445749756E-04 -3.656420710752E-04 -6.529173695438E-04 -9.804384657487E-04 -1.329076962148E-03 -1.685715261933E-03
 -2.361658803485E-09 -5.120396031885E-08 -1.916568066519E-07 -4.235460332964E-07 -7.235598998278E-07 -1.062658619754E-06 -1.416918879798E-06
 -6.178634405055E-01 -6.179896864528E-01 -6.182172029129E-01 -6.185200437328E-01 -6.188735420810E-01 -6.192557754180E-01 -6.196497246968E-01
 -1.090990804677E-02 -1.082427714031E-02 -1.068248032678E-02 -1.051305972728E-02 -1.033545402917E-02 -1.015894610973E-02 -9.984982084534E-03
  0.000000000000E+00  0.000000000000E+00 -8.306074839483E-05 -9.956886712335E-05 -1.090509004023E-04 -1.133798076337E-04 -1.145346009180E-04
 -3.952395498799E-03 -3.952390729364E-03 -3.952382486703E-03 -3.952371874503E-03 -3.952359803994E-03 -3.952346977512E-03 -3.952333873967E-03
 -1.297590184581E-03 -1.297632946783E-03 -1.297707458275E-03 -1.297803593606E-03 -1.297913055156E-03 -1.298029461433E-03 -1.298148449785E-03
  0.000000000000E+00  0.000000000000E+00  0.000000000000E+00  0.000000000000E+00  0.000000000000E+00  0.000000000000E+00  0.000000000000E+00
  2.168047646460E-01  2.150559676631E-01  2.121554668401E-01  2.086824113861E-01  2.050334739001E-01  2.014013653016E-01  1.978206968919E-01
 ZONE t = "whisker load points"
 DATAPACKING=block
 zonetype =FELINESEG
 N=           7 , E=           6
 strandid =            3
 solutiontime =   87.500000000000014     
 VARSHARELIST = ([1]=1,[2]=1,[3]=1)
 CONNECTIVITYSHAREZONE =           1
 -1.189207400842E-04 -1.076998684710E-03 -2.723813339753E-03 -4.823256375968E-03 -7.191205857796E-03 -9.693402589837E-03 -1.224296392730E-02
 -1.604382405204E-05 -1.331870610279E-04 -3.395626588965E-04 -6.068350874787E-04 -9.118611560343E-04 -1.236773135223E-03 -1.569231116428E-03
 -1.176068805218E-09 -2.520110669330E-08 -9.261462720169E-08 -2.014276001740E-07 -3.396528728888E-07 -4.939682682888E-07 -6.541912745679E-07
 -6.180330873860E-01 -6.178697657614E-01 -6.175765431888E-01 -6.171885401144E-01 -6.167384007105E-01 -6.162540211553E-01 -6.157562034137E-01
 -1.007199017409E-02 -1.015480109759E-02 -1.030868099153E-02 -1.052022610012E-02 -1.077504615239E-02 -1.105726345490E-02 -1.135162725558E-02
  0.000000000000E+00  0.000000000000E+00  0.000000000000E+00 -6.751485177439E-05 -7.326847267018E-05 -7.571969364064E-05 -7.625163380166E-05
 -4.008528625051E-03 -4.008526506983E-03 -4.008523022532E-03 -4.008518709968E-03 -4.008513956547E-03 -4.008509013913E-03 -4.008504020868E-03
 -1.243519945470E-03 -1.243550469418E-03 -1.243602966855E-03 -1.243669919084E-03 -1.243745456440E-03 -1.243825292734E-03 -1.243906649480E-03
  0.000000000000E+00  0.000000000000E+00  0.000000000000E+00  0.000000000000E+00  0.000000000000E+00  0.000000000000E+00  0.000000000000E+00
  2.000702312007E-01  2.017714050177E-01  2.049316470559E-01  2.092762190613E-01  2.145112110318E-01  2.203134435662E-01  2.263730049557E-01
 ZONE t = "whisker load points"
 DATAPACKING=block
 zonetype =FELINESEG
 N=           7 , E=           6
 strandid =            3
 solutiontime =   100.00000000000000     
 VARSHARELIST = ([1]=1,[2]=1,[3]=1)
 CONNECTIVITYSHAREZONE =           1
 -1.545880928715E-04 -1.412472893652E-03 -3.597963399141E-03 -6.410901915538E-03 -9.607764824919E-03 -1.300318009519E-02 -1.647169665581E-02
 -1.265965593983E-05 -1.046472104552E-04 -2.658255208444E-04 -4.735410541265E-04 -7.096616174656E-04 -9.605020336089E-04 -1.216836404573E-03
 -1.989512678681E-09 -4.303500395077E-08 -1.604582847369E-07 -3.534107490481E-07 -6.021178831948E-07 -8.825238613987E-07 -1.175102982197E-06
 -6.182662457436E-01 -6.184475102138E-01 -6.187733234539E-01 -6.192050969417E-01 -6.197070068800E-01 -6.202481890725E-01 -6.208052863424E-01
 -9.188558637877E-03 -9.151284125106E-03 -9.085005463580E-03 -8.998011675494E-03 -8.898015824389E-03 -8.791408996986E-03 -8.682474411294E-03
  0.000000000000E+00  0.000000000000E+00 -7.605970266329E-05 -9.100182721764E-05 -9.953870481089E-05 -1.034236360297E-04 -1.044696063586E-04
 -4.062964954582E-03 -4.062961008609E-03 -4.062954195693E-03 -4.062945434705E-03 -4.062935479001E-03 -4.062924905810E-03 -4.062914106951E-03
 -1.188572429532E-03 -1.188612882087E-03 -1.188683173570E-03 -1.188773647615E-03 -1.188876471266E-03 -1.188985682653E-03 -1.189097247213E-03
  0.000000000000E+00  0.000000000000E+00  0.000000000000E+00  0.000000000000E+00  0.000000000000E+00  0.000000000000E+00  0.000000000000E+00
  1.824257303992E-01  1.816312288461E-01  1.802186672738E-01  1.783657264692E-01  1.762375097296E-01  1.739707572085E-01  1.716575465545E-01
 ZONE t = "whisker load points"
 DATAPACKING=block
 zonetype =FELINESEG
 N=           7 , E=           6
 strandid =            3
 solutiontime =   112.50000000000001     
 VARSHARELIST = ([1]=1,[2]=1,[3]=1)
 CONNECTIVITYSHAREZONE =           1
 -1.299231895367E-04 -1.180465478184E-03 -2.993386759844E-03 -5.312819417834E-03 -7.936329694885E-03 -1.071390749028E-02 -1.354678635966E-02
 -1.106306445382E-05 -9.129223846984E-05 -2.315228120274E-04 -4.117997081375E-04 -6.162875134784E-04 -8.331746093920E-04 -1.054614380832E-03
 -1.395089255956E-09 -2.999001436832E-08 -1.107697170952E-07 -2.419728059177E-07 -4.095091559945E-07 -5.972078054865E-07 -7.924379256651E-07
 -6.184119285043E-01 -6.182420168790E-01 -6.179366481832E-01 -6.175321361652E-01 -6.170621977386E-01 -6.165558824888E-01 -6.160351311174E-01
 -8.300390222607E-03 -8.357604924336E-03 -8.458870025684E-03 -8.590931205420E-03 -8.742179479911E-03 -8.903360528371E-03 -9.068128728619E-03
  0.000000000000E+00  0.000000000000E+00 -6.282329779992E-05 -7.465571323863E-05 -8.120661627390E-05 -8.403656992128E-05 -8.466595185523E-05
 -4.117393900930E-03 -4.117391015025E-03 -4.117386091806E-03 -4.117379820570E-03 -4.117372745211E-03 -4.117365266397E-03 -4.117357645771E-03
 -1.131501262430E-03 -1.131535506062E-03 -1.131594609858E-03 -1.131670231790E-03 -1.131755771583E-03 -1.131846337690E-03 -1.131938709066E-03
  0.000000000000E+00  0.000000000000E+00  0.000000000000E+00  0.000000000000E+00  0.000000000000E+00  0.000000000000E+00  0.000000000000E+00
  1.647289851310E-01  1.659117051443E-01  1.680079374515E-01  1.707466228833E-01  1.738896545912E-01  1.772461400669E-01  1.806841556377E-01
 ZONE t = "whisker load points"
 DATAPACKING=block
 zonetype =FELINESEG
 N=           7 , E=           6
 strandid =            3
 solutiontime =   125.00000000000000     
 VARSHARELIST = ([1]=1,[2]=1,[3]=1)
 CONNECTIVITYSHAREZONE =           1
 -1.455537411874E-04 -1.327569398035E-03 -3.376863283359E-03 -6.009530545246E-03 -8.997064677024E-03 -1.216697992361E-02 -1.540352994894E-02
 -4.607352293965E-06 -3.932439153504E-05 -1.026946067889E-04 -1.874258311985E-04 -2.866258897174E-04 -3.941310525481E-04 -5.050794015025E-04
 -1.752697482161E-09 -3.780008590105E-08 -1.405057316070E-07 -3.086523522746E-07 -5.247561042731E-07 -7.679266509799E-07 -1.021405863312E-06
 -6.169898308416E-01 -6.171539043283E-01 -6.174498734537E-01 -6.178435133662E-01 -6.183181092826E-01 -6.188195780989E-01 -6.193367793335E-01
  0.000000000000E+00  0.000000000000E+00  1.293403162350E-10  1.909865321448E-10 -1.507009315605E-04 -2.043074799108E-04 -2.643111150391E-04
  0.000000000000E+00  0.000000000000E+00 -7.102459265312E-05 -8.482736153136E-05 -9.266618101881E-05 -9.620688923464E-05 -9.714814238967E-05
 -4.098714293421E-03 -4.098714809834E-03 -4.098715807424E-03 -4.098717195122E-03 -4.098718866911E-03 -4.098720712289E-03 -4.098722633736E-03
 -9.986506199860E-04 -9.986887796670E-04 -9.987549398777E-04 -9.988399361113E-04 -9.989363917220E-04 -9.990387380669E-04 -9.991432379312E-04
  0.000000000000E+00  0.000000000000E+00  0.000000000000E+00  0.000000000000E+00  0.000000000000E+00  0.000000000000E+00  0.000000000000E+00
  0.000000000000E+00  0.000000000000E+00  0.000000000000E+00  0.000000000000E+00  2.987175127487E-03  4.046510703688E-03  5.230621094768E-03
 ZONE t = "whisker load points"
 DATAPACKING=block
 zonetype =FELINESEG
 N=           7 , E=           6
 strandid =            3
 solutiontime =   137.50000000000003     
 VARSHARELIST = ([1]=1,[2]=1,[3]=1)
 CONNECTIVITYSHAREZONE =           1
 -1.363395854267E-04 -1.240892179145E-03 -3.150988286154E-03 -5.599271964638E-03 -8.372594079758E-03 -1.131168562967E-02 -1.431077205640E-02
  6.255531297753E-06  5.285164183094E-05  1.366335134687E-04  2.468937804039E-04  3.741225537664E-04  5.105224034081E-04  6.505266157287E-04
 -1.535438830930E-09 -3.302394649367E-08 -1.223132510504E-07 -2.678512226896E-07 -4.542368938253E-07 -6.634665838160E-07 -8.813071277001E-07
 -6.172182866290E-01 -6.170792230854E-01 -6.168293746997E-01 -6.164985127474E-01 -6.161281997783E-01 -6.158042024993E-01 -6.154570841464E-01
  8.213245301294E-04  7.031153080491E-04  4.888482229636E-04  2.021493131413E-04 -2.753383909759E-10 -5.015936094259E-04 -8.810181258284E-04
  0.000000000000E+00  0.000000000000E+00 -6.606371131461E-05 -7.864540737508E-05 -8.566350469498E-05 -8.873488588560E-05 -8.944491798538E-05
 -4.142483367388E-03 -4.142482039858E-03 -4.142479638849E-03 -4.142476466647E-03 -4.142472796036E-03 -4.142468853501E-03 -4.142464802778E-03
 -9.428184559927E-04 -9.428546182397E-04 -9.429171538393E-04 -9.429973101564E-04 -9.430881090758E-04 -9.431843362970E-04 -9.432825287895E-04
  0.000000000000E+00  0.000000000000E+00  0.000000000000E+00  0.000000000000E+00  0.000000000000E+00  0.000000000000E+00  0.000000000000E+00
  1.631101404178E-02  1.396631958241E-02  9.713815890848E-03  4.018838522825E-03  0.000000000000E+00  9.983683654241E-03  1.754673843246E-02
 ZONE t = "whisker load points"
 DATAPACKING=block
 zonetype =FELINESEG
 N=           7 , E=           6
 strandid =            3
 solutiontime =   150.00000000000000     
 VARSHARELIST = ([1]=1,[2]=1,[3]=1)
 CONNECTIVITYSHAREZONE =           1
 -1.409079726882E-04 -1.283841852446E-03 -3.262862448399E-03 -5.802394424732E-03 -8.681681022402E-03 -1.173492031804E-02 -1.485141758711E-02
  4.704656713282E-06  3.934431241596E-05  1.008533901428E-04  1.809508770576E-04  2.726476210900E-04  3.704532532886E-04  4.705655639133E-04
 -1.640981196359E-09 -3.533433294477E-08 -1.310978388870E-07 -2.875261981178E-07 -4.882053029054E-07 -7.137425609480E-07 -9.486967235993E-07
 -6.175190341017E-01 -6.176310704661E-01 -6.178323748566E-01 -6.180990458726E-01 -6.184088977829E-01 -6.187428534703E-01 -6.190865246196E-01
  1.788211571669E-03  1.898593843470E-03  2.098818050205E-03  2.365595899597E-03  2.676752210936E-03  3.012747306008E-03  3.358771275598E-03
  0.000000000000E+00  0.000000000000E+00 -6.860126017649E-05 -8.183353965941E-05 -8.930553434962E-05 -9.265301399014E-05 -9.351901582664E-05
 -4.185936412622E-03 -4.185935883198E-03 -4.185934915668E-03 -4.185933635092E-03 -4.185932153440E-03 -4.185930562843E-03 -4.185928929387E-03
 -8.851367898285E-04 -8.851745621453E-04 -8.852399671641E-04 -8.853238979921E-04 -8.854190590825E-04 -8.855199708050E-04 -8.856229746214E-04
  0.000000000000E+00  0.000000000000E+00  0.000000000000E+00  0.000000000000E+00  0.000000000000E+00  0.000000000000E+00  0.000000000000E+00
  3.550127377423E-02  3.768654599082E-02  4.164876173454E-02  4.692451755935E-02  5.307284060748E-02  5.970582992660E-02  6.653012561500E-02
 ZONE t = "whisker load points"
 DATAPACKING=block
 zonetype =FELINESEG
 N=           7 , E=           6
 strandid =            3
 solutiontime =   162.50000000000000     
 VARSHARELIST = ([1]=1,[2]=1,[3]=1)
 CONNECTIVITYSHAREZONE =           1
 -1.397065492290E-04 -1.272525110270E-03 -3.233343508857E-03 -5.748738936785E-03 -8.599965222378E-03 -1.162295926211E-02 -1.470834297375E-02
  4.658538496213E-07  2.964751244135E-06  5.569804443857E-06  6.858346287767E-06  6.447168897222E-06  4.670874533987E-06  2.182590611559E-06
 -1.610633205466E-09 -3.467704511534E-08 -1.285949871664E-07 -2.819122794574E-07 -4.785026468138E-07 -6.993717843994E-07 -9.294262635057E-07
 -6.177688154412E-01 -6.176815351389E-01 -6.175247341005E-01 -6.173171069249E-01 -6.170759607276E-01 -6.168161773738E-01 -6.165489736631E-01
  2.731051207612E-03  2.691461569057E-03  2.622175640743E-03  2.532654906345E-03  2.430935589849E-03  2.323168441883E-03  2.213338997403E-03
  0.000000000000E+00  0.000000000000E+00 -6.791966718856E-05 -8.093401854635E-05 -8.822533574630E-05 -9.143175353471E-05 -9.218955302840E-05
 -4.229779385692E-03 -4.229780683678E-03 -4.229782987420E-03 -4.229786010674E-03 -4.229789499350E-03 -4.229793242245E-03 -4.229797084303E-03
 -8.259042063763E-04 -8.259421226086E-04 -8.260077510026E-04 -8.260919394515E-04 -8.261873668437E-04 -8.262885428476E-04 -8.263918075531E-04
  0.000000000000E+00  0.000000000000E+00  0.000000000000E+00  0.000000000000E+00  0.000000000000E+00  0.000000000000E+00  0.000000000000E+00
  5.420606523171E-02  5.342748475269E-02  5.206472558191E-02  5.030340738111E-02  4.830111689554E-02  4.617846617327E-02  4.401360809914E-02
 ZONE t = "whisker load points"
 DATAPACKING=block
 zonetype =FELINESEG
 N=           7 , E=           6
 strandid =            3
 solutiontime =   175.00000000000003     
 VARSHARELIST = ([1]=1,[2]=1,[3]=1)
 CONNECTIVITYSHAREZONE =           1
 -1.406996396738E-04 -1.281503511348E-03 -3.256021677158E-03 -5.788854907175E-03 -8.659724720582E-03 -1.170345573652E-02 -1.480995286763E-02
  1.011562405790E-05  8.231633501404E-05  2.060818583063E-04  3.621856897509E-04  5.363726789832E-04  7.189748790648E-04  9.043183239100E-04
 -1.641440917865E-09 -3.531314176330E-08 -1.309260837826E-07 -2.869723615217E-07 -4.870212355985E-07 -7.117440633644E-07 -9.457951275293E-07
 -6.234142126267E-01 -6.234796159728E-01 -6.235974729350E-01 -6.237539137779E-01 -6.239359264187E-01 -6.241322406641E-01 -6.243343244830E-01
  1.043977807332E-02  1.035446006891E-02  1.019049795049E-02  9.960470878417E-03  9.680610035386E-03  9.369599274377E-03  9.044796836095E-03
  0.000000000000E+00  0.000000000000E+00 -6.913477504411E-05 -8.242317556902E-05 -8.990318532861E-05 -9.323354108468E-05 -9.407325015341E-05
 -4.192567161787E-03 -4.192571059378E-03 -4.192577844116E-03 -4.192586633236E-03 -4.192596684173E-03 -4.192607407015E-03 -4.192618383635E-03
 -7.060143079455E-04 -7.060517258330E-04 -7.061164830568E-04 -7.061995372496E-04 -7.062936620532E-04 -7.063934443398E-04 -7.064952802258E-04
  0.000000000000E+00  0.000000000000E+00  0.000000000000E+00  0.000000000000E+00  0.000000000000E+00  0.000000000000E+00  0.000000000000E+00
  2.055955559451E-01  2.038910241638E-01  2.006189646636E-01  1.960336882281E-01  1.904611649281E-01  1.842745800118E-01  1.778193321109E-01
 ZONE t = "whisker load points"
 DATAPACKING=block
 zonetype =FELINESEG
 N=           7 , E=           6
 strandid =            3
 solutiontime =   187.50000000000003     
 VARSHARELIST = ([1]=1,[2]=1,[3]=1)
 CONNECTIVITYSHAREZONE =           1
 -1.417626160269E-04 -1.291479211202E-03 -3.281972715984E-03 -5.835926240424E-03 -8.731302100646E-03 -1.180142311727E-02 -1.493506686983E-02
  2.385285062394E-05  1.989062058225E-04  5.088178857738E-04  9.115539269553E-04  1.372069663766E-03  1.863039424857E-03  2.365602427348E-03
 -1.697193918934E-09 -3.655930091359E-08 -1.357007624170E-07 -2.977005804687E-07 -5.055727412832E-07 -7.392272348386E-07 -9.826580505966E-07
 -6.235910393390E-01 -6.235493112718E-01 -6.234745813072E-01 -6.233759730795E-01 -6.232618213426E-01 -6.231391521027E-01 -6.230131382115E-01
  1.142382963855E-02  1.134981884049E-02  1.121474208226E-02  1.103262389072E-02  1.081685857326E-02  1.058053827113E-02  1.033523568806E-02
  0.000000000000E+00  0.000000000000E+00 -6.981482656002E-05 -8.322053428059E-05 -9.074537763270E-05 -9.406712020088E-05 -9.486584575503E-05
 -4.229013782428E-03 -4.229015184999E-03 -4.229017389760E-03 -4.229020051993E-03 -4.229022941050E-03 -4.229025917079E-03 -4.229028907254E-03
 -6.457026646415E-04 -6.457413702206E-04 -6.458084232500E-04 -6.458944893675E-04 -6.459920863064E-04 -6.460955909977E-04 -6.462012472764E-04
  0.000000000000E+00  0.000000000000E+00  0.000000000000E+00  0.000000000000E+00  0.000000000000E+00  0.000000000000E+00  0.000000000000E+00
  2.249478878775E-01  2.235027641652E-01  2.208643718594E-01  2.173055659348E-01  2.130871558762E-01  2.084646564886E-01  2.036644843606E-01
 ZONE t = "whisker load points"
 DATAPACKING=block
 zonetype =FELINESEG
 N=           7 , E=           6
 strandid =            3
 solutiontime =   200.00000000000000     
 VARSHARELIST = ([1]=1,[2]=1,[3]=1)
 CONNECTIVITYSHAREZONE =           1
 -1.400506251792E-04 -1.275356997652E-03 -3.239918608544E-03 -5.759474481279E-03 -8.614839688283E-03 -1.164180794005E-02 -1.473103282492E-02
  2.045197908094E-05  1.696158756523E-04  4.318824368576E-04  7.706652909643E-04  1.156266396151E-03  1.566113687147E-03  1.984985540348E-03
 -1.647501721108E-09 -3.544030517385E-08 -1.314058801333E-07 -2.880238566979E-07 -4.887960248645E-07 -7.143227103898E-07 -9.492073235771E-07
 -6.237838981099E-01 -6.238105304310E-01 -6.238583454835E-01 -6.239217454798E-01 -6.239955104560E-01 -6.240751169750E-01 -6.241570989701E-01
  1.244825673872E-02  1.254487923711E-02  1.272078130691E-02  1.295533355873E-02  1.322882584983E-02  1.352394569448E-02  1.382767200220E-02
  0.000000000000E+00  0.000000000000E+00 -6.892660967042E-05 -8.215622678042E-05 -8.959405743607E-05 -9.289806334968E-05 -9.372343953422E-05
 -4.264836699372E-03 -4.264839305164E-03 -4.264843677820E-03 -4.264849205771E-03 -4.264855415369E-03 -4.264861962454E-03 -4.264868624172E-03
 -5.836181491730E-04 -5.836564951220E-04 -5.837228781462E-04 -5.838080316252E-04 -5.839045466913E-04 -5.840068705770E-04 -5.841113042639E-04
  0.000000000000E+00  0.000000000000E+00  0.000000000000E+00  0.000000000000E+00  0.000000000000E+00  0.000000000000E+00  0.000000000000E+00
  2.450858417898E-01  2.469815857128E-01  2.504328213157E-01  2.550344142127E-01  2.603992925505E-01  2.661875380597E-01  2.721436076466E-01
 ZONE t = "whisker load points"
 DATAPACKING=block
 zonetype =FELINESEG
 N=           7 , E=           6
 strandid =            3
 solutiontime =   212.50000000000003     
 VARSHARELIST = ([1]=1,[2]=1,[3]=1)
 CONNECTIVITYSHAREZONE =           1
 -1.421455833402E-04 -1.295048337584E-03 -3.291200998285E-03 -5.852570862936E-03 -8.756487256059E-03 -1.183575494649E-02 -1.497877935914E-02
  1.421302905679E-05  1.162017310621E-04  2.922443045034E-04  5.159036242507E-04  7.671380328799E-04  1.031821378374E-03  1.301160890937E-03
 -1.681869394070E-09 -3.620606391634E-08 -1.343069308056E-07 -2.945075636574E-07 -4.999768452533E-07 -7.308605747108E-07 -9.713666427899E-07
 -6.239632803944E-01 -6.239428277403E-01 -6.239060122152E-01 -6.238571903549E-01 -6.238003994885E-01 -6.237391434269E-01 -6.236760897122E-01
  1.339492680611E-02  1.338661324531E-02  1.337346029431E-02  1.335819914040E-02  1.334263721257E-02  1.332758802582E-02  1.331304299459E-02
  0.000000000000E+00  0.000000000000E+00 -6.999800200018E-05 -8.344967124264E-05 -9.100873253160E-05 -9.435508845073E-05 -9.517172606375E-05
 -4.300350680935E-03 -4.300355376440E-03 -4.300363524003E-03 -4.300374051904E-03 -4.300386064478E-03 -4.300398858788E-03 -4.300411944709E-03
 -5.246079323553E-04 -5.246468002280E-04 -5.247140932219E-04 -5.248004252841E-04 -5.248982874471E-04 -5.250020480429E-04 -5.251079526857E-04
  0.000000000000E+00  0.000000000000E+00  0.000000000000E+00  0.000000000000E+00  0.000000000000E+00  0.000000000000E+00  0.000000000000E+00
  2.636897852130E-01  2.635344191440E-01  2.632904835515E-01  2.630099899982E-01  2.627268812529E-01  2.624557241864E-01  2.621952231924E-01
 ZONE t = "whisker load points"
 DATAPACKING=block
 zonetype =FELINESEG
 N=           7 , E=           6
 strandid =            3
 solutiontime =   225.00000000000003     
 VARSHARELIST = ([1]=1,[2]=1,[3]=1)
 CONNECTIVITYSHAREZONE =           1
 -1.396541472523E-04 -1.271702380617E-03 -3.230542007605E-03 -5.742661575543E-03 -8.589509631864E-03 -1.160738374832E-02 -1.468729402397E-02
  2.495187306699E-05  2.050797416576E-04  5.181092596998E-04  9.181918681918E-04  1.369688416727E-03  1.846809825597E-03  2.333070959282E-03
 -1.651774623297E-09 -3.551760256044E-08 -1.316474987621E-07 -2.884559704882E-07 -4.893880346693E-07 -7.150293459220E-07 -9.500007643628E-07
 -6.225880236938E-01 -6.226143441808E-01 -6.226625899857E-01 -6.227276572641E-01 -6.228043934912E-01 -6.228879482098E-01 -6.229743656127E-01
  2.043485408154E-02  2.031231598444E-02  2.008263711432E-02  1.976744348428E-02  1.939064462196E-02  1.897674274542E-02  1.854690433703E-02