variables="x","y","z","u","v","w","load_fx","load_fy","load_fz","flow_u","flow_v","flow_w","AOA"
 ZONE t = "whisker load points"
 DATAPACKING=block
 zonetype =FELINESEG
 N=           7 , E=           6
 strandid =            3
 solutiontime =   0.0000000000000000     
PASSIVEVARLIST=[4,5,6,7,8,9,10,11,12,13,]
  1.500000000000E+02  1.500000000000E+02  1.500000000000E+02  1.500000000000E+02  1.500000000000E+02  1.500000000000E+02  1.500000000000E+02
  5.700000000000E+02  5.700000000000E+02  5.700000000000E+02  5.700000000000E+02  5.700000000000E+02  5.700000000000E+02  5.700000000000E+02
  1.034400000000E+01  3.103200000000E+01  5.172000000000E+01  7.240800000000E+01  9.309600000000E+01  1.137840000000E+02  1.344720000000E+02
           1           2
           2           3
           3           4
           4           5
           5           6
           6           7
 ZONE t = "whisker load points"
 DATAPACKING=block
 zonetype =FELINESEG
 N=           7 , E=           6
 strandid =            3
 solutiontime =   12.500000000000000     
 VARSHARELIST = ([1]=1,[2]=1,[3]=1)
 CONNECTIVITYSHAREZONE =           1
 -6.022044764809E-08 -5.523746826012E-07 -1.416650551257E-06 -2.539445612955E-06 -3.824829205093E-06 -5.196769008470E-06 -6.601732863904E-06
 -5.367423267123E-07 -4.426691075117E-06 -1.122835945046E-05 -1.996656712060E-05 -2.986668832644E-05 -4.035561999531E-05 -5.105872807334E-05
 -1.905922520816E-14 -4.169557311438E-13 -1.563941801235E-12 -3.442985437832E-12 -5.852695397836E-12 -8.558664754575E-12 -1.137746170992E-11
 -1.716523803982E-04 -1.716388051835E-04 -1.716160217627E-04 -1.715882933221E-04 -1.715586531734E-04 -1.715287264327E-04 -1.714990100643E-04
 -3.614008953293E-04 -3.612787470561E-04 -3.610691901763E-04 -3.608071251107E-04 -3.605191611300E-04 -3.602217034039E-04 -3.599223688180E-04
  0.000000000000E+00  0.000000000000E+00  0.000000000000E+00  0.000000000000E+00  0.000000000000E+00  0.000000000000E+00  0.000000000000E+00
 -2.581323296762E-03 -2.581323358440E-03 -2.581323466245E-03 -2.581323604614E-03 -2.581323761241E-03 -2.581323927078E-03 -2.581324096249E-03
 -1.610435204737E-03 -1.610435254181E-03 -1.610435340699E-03 -1.610435452063E-03 -1.610435578463E-03 -1.610435712553E-03 -1.610435849468E-03
  0.000000000000E+00  0.000000000000E+00  0.000000000000E+00  0.000000000000E+00  0.000000000000E+00  0.000000000000E+00  0.000000000000E+00
  3.195810759986E+01  3.194987856247E+01  3.193566157577E+01  3.191773095393E+01  3.189786224370E+01  3.187719673806E+01  3.185631267991E+01
 ZONE t = "whisker load points"
 DATAPACKING=block
 zonetype =FELINESEG
 N=           7 , E=           6
 strandid =            3
 solutiontime =   25.000000000000000     
 VARSHARELIST = ([1]=1,[2]=1,[3]=1)
 CONNECTIVITYSHAREZONE =           1
 -1.979934825471E-04 -1.823056374679E-03 -4.672901251575E-03 -8.371340068817E-03 -1.260211239583E-02 -1.711543428202E-02 -2.173603082287E-02
 -2.187636079774E-05 -1.783296998227E-04 -4.470372126733E-04 -7.864215283676E-04 -1.165418572605E-03 -1.562868013534E-03 -1.966347636730E-03
 -3.298590712000E-09 -7.226719518703E-08 -2.727445434287E-07 -6.070422648900E-07 -1.043006507137E-06 -1.538438110346E-06 -2.057432227797E-06
 -6.125128235420E-01 -6.119063028806E-01 -6.107953691603E-01 -6.092872806420E-01 -6.074934297591E-01 -6.055271322606E-01 -6.034886542952E-01
 -2.143141168619E-02 -2.119928792570E-02 -2.074665080500E-02 -2.010246012503E-02 -1.931084658807E-02 -1.842672628962E-02 -1.750307268794E-02
  0.000000000000E+00 -6.820107611440E-05 -9.850543434073E-05 -1.183537462765E-04 -1.296661890138E-04 -1.345944642296E-04 -1.355271223210E-04
 -2.628981592651E-03 -2.628968155045E-03 -2.628944505696E-03 -2.628913648306E-03 -2.628878185085E-03 -2.628840231151E-03 -2.628801313726E-03
 -1.591012452810E-03 -1.591042872128E-03 -1.591096174842E-03 -1.591165255790E-03 -1.591244187491E-03 -1.591328322318E-03 -1.591414423356E-03
  0.000000000000E+00  0.000000000000E+00  0.000000000000E+00  0.000000000000E+00  0.000000000000E+00  0.000000000000E+00  0.000000000000E+00
  4.303855978459E-01  4.261307998618E-01  4.177613234366E-01  4.057505644459E-01  3.908745021372E-01  3.741372491226E-01  3.565308600223E-01
 ZONE t = "whisker load points"
 DATAPACKING=block
 zonetype =FELINESEG
 N=           7 , E=           6
 strandid =            3
 solutiontime =   37.500000000000000     
 VARSHARELIST = ([1]=1,[2]=1,[3]=1)
 CONNECTIVITYSHAREZONE =           1
 -8.480919718215E-05 -7.573062996839E-04 -1.893691009181E-03 -3.320707476238E-03 -4.911216848772E-03 -6.578583543430E-03 -8.270753366236E-03
 -4.689983280616E-05 -3.913857676560E-04 -1.001716520748E-03 -1.795197223552E-03 -2.702649640783E-03 -3.670089305612E-03 -4.660315738514E-03
 -7.137231741650E-10 -1.538073406318E-08 -5.606170306077E-08 -1.209475303005E-07 -2.026335708793E-07 -2.932953531862E-07 -3.871662566999E-07
 -6.128851043005E-01 -6.131581255853E-01 -6.136623801187E-01 -6.143481152029E-01 -6.151614329375E-01 -6.160496373944E-01 -6.169693279429E-01
 -2.102613791585E-02 -2.097149009825E-02 -2.086238134756E-02 -2.070061446896E-02 -2.049199248375E-02 -2.024923247017E-02 -1.998931125880E-02
  0.000000000000E+00  0.000000000000E+00  0.000000000000E+00  0.000000000000E+00  0.000000000000E+00  0.000000000000E+00  0.000000000000E+00
 -2.681913085567E-03 -2.681912667124E-03 -2.681912470980E-03 -2.681912714582E-03 -2.681913403739E-03 -2.681914418477E-03 -2.681915600412E-03
 -1.561505548832E-03 -1.561521121561E-03 -1.561547713406E-03 -1.561581372018E-03 -1.561619113630E-03 -1.561658837768E-03 -1.561699235553E-03
  0.000000000000E+00  0.000000000000E+00  0.000000000000E+00  0.000000000000E+00  0.000000000000E+00  0.000000000000E+00  0.000000000000E+00
  4.219604644895E-01  4.206718072419E-01  4.181303465428E-01  4.144120871963E-01  4.096768965162E-01  4.042213857796E-01  3.984184603976E-01
 ZONE t = "whisker load points"
 DATAPACKING=block
 zonetype =FELINESEG
 N=           7 , E=           6
 strandid =            3
 solutiontime =   50.000000000000000     
 VARSHARELIST = ([1]=1,[2]=1,[3]=1)
 CONNECTIVITYSHAREZONE =           1
 -1.835338610931E-04 -1.685119996372E-03 -4.309231773250E-03 -7.704046755554E-03 -1.157779663758E-02 -1.570329994378E-02 -1.992332627152E-02
 -3.543427201023E-05 -2.940107115593E-04 -7.488295757852E-04 -1.336421392209E-03 -2.005177942623E-03 -2.715891733040E-03 -3.442185705197E-03
 -2.902735808802E-09 -6.300024038145E-08 -2.367906717015E-07 -5.252191136359E-07 -8.999116127056E-07 -1.324582355517E-06 -1.768851301491E-06
 -6.131099356168E-01 -6.130381728017E-01 -6.129167914591E-01 -6.127677237187E-01 -6.126082918828E-01 -6.124482678684E-01 -6.122901086174E-01
 -2.063404564213E-02 -2.083746986716E-02 -2.120542286018E-02 -2.169234967805E-02 -2.225609041685E-02 -2.286092120201E-02 -2.348126401154E-02
  0.000000000000E+00 -6.319440934217E-05 -9.113259672316E-05 -1.094564231144E-04 -1.200239211208E-04 -1.248402446464E-04 -1.260768653934E-04
 -2.734219650223E-03 -2.734209910871E-03 -2.734192945285E-03 -2.734170981835E-03 -2.734145887441E-03 -2.734119133770E-03 -2.734091753342E-03
 -1.532189586883E-03 -1.532219978883E-03 -1.532273119162E-03 -1.532341859314E-03 -1.532420281128E-03 -1.532503785909E-03 -1.532589198241E-03
  0.000000000000E+00  0.000000000000E+00  0.000000000000E+00  0.000000000000E+00  0.000000000000E+00  0.000000000000E+00  0.000000000000E+00
  4.139118977430E-01  4.180560503871E-01  4.255493031264E-01  4.354631901801E-01  4.469394782901E-01  4.592530603028E-01  4.718871680595E-01
 ZONE t = "whisker load points"
 DATAPACKING=block
 zonetype =FELINESEG
 N=           7 , E=           6
 strandid =            3
 solutiontime =   62.499999999999993     
 VARSHARELIST = ([1]=1,[2]=1,[3]=1)
 CONNECTIVITYSHAREZONE =           1
 -1.025825308902E-04 -9.235450785446E-04 -2.324314453894E-03 -4.098107053555E-03 -6.087843056057E-03 -8.182501058044E-03 -1.031276371749E-02
 -1.861621979407E-05 -1.511427719228E-04 -3.777197911885E-04 -6.629603936152E-04 -9.809161971618E-04 -1.314090674633E-03 -1.652191191779E-03
 -8.876653752457E-10 -1.879361667796E-08 -6.831305483091E-08 -1.471572154764E-07 -2.462106201552E-07 -3.559238763405E-07 -4.693775411298E-07
 -6.133759079972E-01 -6.133259217544E-01 -6.132382604797E-01 -6.131244631070E-01 -6.129941909257E-01 -6.128551550726E-01 -6.127128034775E-01
 -2.017345404965E-02 -2.021502348074E-02 -2.029281133679E-02 -2.039961906103E-02 -2.052787460602E-02 -2.066966302239E-02 -2.081757647388E-02
  0.000000000000E+00  0.000000000000E+00  0.000000000000E+00  0.000000000000E+00 -6.126035998191E-05 -6.316334365323E-05 -6.357299049151E-05
 -2.786492596938E-03 -2.786487232225E-03 -2.786478087048E-03 -2.786466474577E-03 -2.786453410071E-03 -2.786439627121E-03 -2.786425595743E-03
 -1.501958130312E-03 -1.501974932281E-03 -1.502003605555E-03 -1.502039899286E-03 -1.502080593006E-03 -1.502123418326E-03 -1.502166964779E-03
  0.000000000000E+00  0.000000000000E+00  0.000000000000E+00  0.000000000000E+00  0.000000000000E+00  0.000000000000E+00  0.000000000000E+00
  4.044649262456E-01  4.053343675158E-01  4.069578332437E-01  4.091833867238E-01  4.118527593689E-01  4.148018592569E-01  4.178780965033E-01
 ZONE t = "whisker load points"
 DATAPACKING=block
 zonetype =FELINESEG
 N=           7 , E=           6
 strandid =            3
 solutiontime =   75.000000000000000     
 VARSHARELIST = ([1]=1,[2]=1,[3]=1)
 CONNECTIVITYSHAREZONE =           1
 -1.662049723777E-04 -1.522093842656E-03 -3.884267601380E-03 -6.931832185060E-03 -1.040176034370E-02 -1.409174422795E-02 -1.786347993239E-02
 -2.259951043259E-05 -1.867717694299E-04 -4.742502683845E-04 -8.444075103860E-04 -1.264800030797E-03 -1.711081665233E-03 -2.166976470836E-03
 -2.331384142857E-09 -5.054430453292E-08 -1.891837134833E-07 -4.180607018199E-07 -7.141546377949E-07 -1.048804721513E-06 -1.398409040348E-06
 -6.117526845234E-01 -6.118691011821E-01 -6.120780488187E-01 -6.123551224555E-01 -6.126775120707E-01 -6.130253381845E-01 -6.133834382253E-01
 -1.588911373645E-02 -1.575885109396E-02 -1.553118648172E-02 -1.524076667510E-02 -1.491534270613E-02 -1.457407654848E-02 -1.422778613089E-02
  0.000000000000E+00  0.000000000000E+00 -8.157681528718E-05 -9.778315541319E-05 -1.070861619830E-04 -1.113269047260E-04 -1.124501871617E-04
 -2.815698336761E-03 -2.815691377545E-03 -2.815679282680E-03 -2.815663663375E-03 -2.815645857424E-03 -2.815626905972E-03 -2.815607528164E-03
 -1.509838808880E-03 -1.509867261839E-03 -1.509916842633E-03 -1.509980804259E-03 -1.510053622941E-03 -1.510131054644E-03 -1.510210200765E-03
  0.000000000000E+00  0.000000000000E+00  0.000000000000E+00  0.000000000000E+00  0.000000000000E+00  0.000000000000E+00  0.000000000000E+00
  3.191824429548E-01  3.164983185810E-01  3.118071333048E-01  3.058227375454E-01  2.991183557438E-01  2.920913261303E-01  2.849674369057E-01
 ZONE t = "whisker load points"
 DATAPACKING=block
 zonetype =FELINESEG
 N=           7 , E=           6
 strandid =            3
 solutiontime =   87.500000000000014     
 VARSHARELIST = ([1]=1,[2]=1,[3]=1)
 CONNECTIVITYSHAREZONE =           1
 -1.176592633684E-04 -1.065546413533E-03 -2.694792964473E-03 -4.771781172416E-03 -7.114352211834E-03 -9.589695034875E-03 -1.211187557199E-02
 -2.631493046236E-05 -2.186866340667E-04 -5.579422580329E-04 -9.975350042899E-04 -1.499269425591E-03 -2.033651856093E-03 -2.580397347433E-03
 -1.180583037065E-09 -2.531048636400E-08 -9.309016620189E-08 -2.025798505743E-07 -3.417475415602E-07 -4.971773791776E-07 -6.585918332099E-07
 -6.119036135198E-01 -6.117401173597E-01 -6.114463671231E-01 -6.110573325018E-01 -6.106055746155E-01 -6.101190753351E-01 -6.096188631311E-01
 -1.536446192288E-02 -1.542920474959E-02 -1.554911950456E-02 -1.571337701722E-02 -1.591043668301E-02 -1.612794164724E-02 -1.635436934849E-02
  0.000000000000E+00  0.000000000000E+00  0.000000000000E+00 -6.634592447891E-05 -7.200140461242E-05 -7.441140883960E-05 -7.493502559078E-05
 -2.860703444536E-03 -2.860700355552E-03 -2.860695221436E-03 -2.860688820919E-03 -2.860681722501E-03 -2.860674307238E-03 -2.860666797304E-03
 -1.476139450762E-03 -1.476160177778E-03 -1.476195867704E-03 -1.476241418798E-03 -1.476292838932E-03 -1.476347205204E-03 -1.476402617430E-03
  0.000000000000E+00  0.000000000000E+00  0.000000000000E+00  0.000000000000E+00  0.000000000000E+00  0.000000000000E+00  0.000000000000E+00
  3.085393606128E-01  3.099259167553E-01  3.124914505082E-01  3.160029620533E-01  3.202140161179E-01  3.248630850925E-01  3.297077569119E-01
 ZONE t = "whisker load points"
 DATAPACKING=block
 zonetype =FELINESEG
 N=           7 , E=           6
 strandid =            3
 solutiontime =   100.00000000000000     
 VARSHARELIST = ([1]=1,[2]=1,[3]=1)
 CONNECTIVITYSHAREZONE =           1
 -1.531250131299E-04 -1.399124737339E-03 -3.564002926155E-03 -6.350453639493E-03 -9.517251381084E-03 -1.288076105603E-02 -1.631669864290E-02
 -2.181649474928E-05 -1.805643943332E-04 -4.590716008902E-04 -8.182805267009E-04 -1.226765882725E-03 -1.660761761031E-03 -2.104262303409E-03
 -1.973358264818E-09 -4.268645827831E-08 -1.591796849497E-07 -3.506182315509E-07 -5.973836277374E-07 -8.756069149193E-07 -1.165913122809E-06
 -6.121173551586E-01 -6.123007874583E-01 -6.126306252136E-01 -6.130678091031E-01 -6.135760483538E-01 -6.141240594357E-01 -6.146881798041E-01
 -1.479707938090E-02 -1.479034937719E-02 -1.477970039185E-02 -1.476681511949E-02 -1.475310515247E-02 -1.473946804832E-02 -1.472614910467E-02
  0.000000000000E+00  0.000000000000E+00 -7.474620317058E-05 -8.943359014741E-05 -9.782685299249E-05 -1.016483830026E-04 -1.026795657756E-04
 -2.904042967614E-03 -2.904037428214E-03 -2.904027859487E-03 -2.904015558408E-03 -2.904001582803E-03 -2.903986741234E-03 -2.903971582600E-03
 -1.441538949328E-03 -1.441565965160E-03 -1.441612923680E-03 -1.441673370473E-03 -1.441742070545E-03 -1.441815039816E-03 -1.441889582398E-03
  0.000000000000E+00  0.000000000000E+00  0.000000000000E+00  0.000000000000E+00  0.000000000000E+00  0.000000000000E+00  0.000000000000E+00
  2.970129211937E-01  2.967883335650E-01  2.964140468984E-01  2.959432648261E-01  2.954222979178E-01  2.948845118644E-01  2.943463306387E-01
 ZONE t = "whisker load points"
 DATAPACKING=block
 zonetype =FELINESEG
 N=           7 , E=           6
 strandid =            3
 solutiontime =   112.50000000000001     
 VARSHARELIST = ([1]=1,[2]=1,[3]=1)
 CONNECTIVITYSHAREZONE =           1
 -1.285807298217E-04 -1.168252963079E-03 -2.962387499660E-03 -5.257752185080E-03 -7.854009902053E-03 -1.060271369217E-02 -1.340613289012E-02
 -1.778142137033E-05 -1.463594126115E-04 -3.703220333482E-04 -6.572999534063E-04 -9.819332600976E-04 -1.325603455433E-03 -1.676160327895E-03
 -1.379469786442E-09 -2.965119673959E-08 -1.095211299749E-07 -2.392408617986E-07 -4.048741914428E-07 -5.904335163840E-07 -7.834352848315E-07
 -6.122450608525E-01 -6.120780472249E-01 -6.117780101812E-01 -6.113807109309E-01 -6.109193052056E-01 -6.104223064886E-01 -6.099112047952E-01
 -1.422718076147E-02 -1.428639710389E-02 -1.439204009187E-02 -1.453085858488E-02 -1.469093820606E-02 -1.486242482330E-02 -1.503822513593E-02
  0.000000000000E+00  0.000000000000E+00 -6.166800964355E-05 -7.328292195893E-05 -7.971400071855E-05 -8.249318286866E-05 -8.311274792982E-05
 -2.947360385097E-03 -2.947355866487E-03 -2.947348112400E-03 -2.947338201106E-03 -2.947326990923E-03 -2.947315121563E-03 -2.947303016505E-03
 -1.405674860612E-03 -1.405697635005E-03 -1.405736950787E-03 -1.405787253809E-03 -1.405844151713E-03 -1.405904390938E-03 -1.405965830168E-03
  0.000000000000E+00  0.000000000000E+00  0.000000000000E+00  0.000000000000E+00  0.000000000000E+00  0.000000000000E+00  0.000000000000E+00
  2.854863725113E-01  2.867559160298E-01  2.890235850403E-01  2.920083454815E-01  2.954568292999E-01  2.991583852853E-01  3.029603521228E-01
 ZONE t = "whisker load points"
 DATAPACKING=block
 zonetype =FELINESEG
 N=           7 , E=           6
 strandid =            3
 solutiontime =   125.00000000000000     
 VARSHARELIST = ([1]=1,[2]=1,[3]=1)
 CONNECTIVITYSHAREZONE =           1
 -1.444686034639E-04 -1.317704125738E-03 -3.351836059976E-03 -5.965094690306E-03 -8.930667070046E-03 -1.207732556234E-02 -1.529015388715E-02
 -1.600288978630E-05 -1.329303252239E-04 -3.390547137615E-04 -6.061003510484E-04 -9.109111724711E-04 -1.235604891101E-03 -1.567858467662E-03
 -1.742451892311E-09 -3.758147888428E-08 -1.397170390314E-07 -3.069535339830E-07 -5.219079185388E-07 -7.638003995201E-07 -1.015956512415E-06
 -6.119648462772E-01 -6.121131139360E-01 -6.123806774726E-01 -6.127367186662E-01 -6.131520347219E-01 -6.136008859200E-01 -6.140634245457E-01
 -9.501964432314E-03 -9.440631657991E-03 -9.335496982664E-03 -9.203117020389E-03 -9.056175604276E-03 -8.902891344452E-03 -8.747645121615E-03
  0.000000000000E+00  0.000000000000E+00 -7.003005584363E-05 -8.363579619535E-05 -9.135544252232E-05 -9.483716044414E-05 -9.575480399936E-05
 -2.972991157782E-03 -2.972988237232E-03 -2.972983247699E-03 -2.972976886055E-03 -2.972969704627E-03 -2.972962111674E-03 -2.972954374221E-03
 -1.415094325201E-03 -1.415120606971E-03 -1.415166190109E-03 -1.415224762082E-03 -1.415291239689E-03 -1.415361783524E-03 -1.415433815263E-03
  0.000000000000E+00  0.000000000000E+00  0.000000000000E+00  0.000000000000E+00  0.000000000000E+00  0.000000000000E+00  0.000000000000E+00
  1.906036170775E-01  1.893254062272E-01  1.871317453422E-01  1.843666713606E-01  1.812954006872E-01  1.780916182207E-01  1.748495135028E-01
 ZONE t = "whisker load points"
 DATAPACKING=block
 zonetype =FELINESEG
 N=           7 , E=           6
 strandid =            3
 solutiontime =   137.50000000000003     
 VARSHARELIST = ([1]=1,[2]=1,[3]=1)
 CONNECTIVITYSHAREZONE =           1
 -1.351027602138E-04 -1.229605330196E-03 -3.122265596555E-03 -5.548135155184E-03 -8.296006694606E-03 -1.120808185038E-02 -1.417957742799E-02
 -1.134864571514E-05 -9.352294037931E-05 -2.369126247193E-04 -4.209951091164E-04 -6.295991442595E-04 -8.507305727919E-04 -1.076444333473E-03
 -1.513711875515E-09 -3.255129693736E-08 -1.205514316214E-07 -2.639682625264E-07 -4.476165492426E-07 -6.537578019111E-07 -8.683748665713E-07
 -6.120473222806E-01 -6.119307168313E-01 -6.117214667590E-01 -6.114447481750E-01 -6.111238513960E-01 -6.107786236896E-01 -6.104238242641E-01
 -8.915182918805E-03 -9.013312385688E-03 -9.190726043343E-03 -9.427384685939E-03 -9.704536400727E-03 -1.000518442970E-02 -1.031554899847E-02
  0.000000000000E+00  0.000000000000E+00 -6.498944038934E-05 -7.737498208083E-05 -8.428869317806E-05 -8.731299707884E-05 -8.801575660726E-05
 -3.011787527144E-03 -3.011784444399E-03 -3.011779141826E-03 -3.011772351506E-03 -3.011764661233E-03 -3.011756512187E-03 -3.011748197829E-03
 -1.380120700297E-03 -1.380145289590E-03 -1.380187816436E-03 -1.380242325966E-03 -1.380304071966E-03 -1.380369508735E-03 -1.380436281838E-03
  0.000000000000E+00  0.000000000000E+00  0.000000000000E+00  0.000000000000E+00  0.000000000000E+00  0.000000000000E+00  0.000000000000E+00
  1.787912141839E-01  1.807966744153E-01  1.844241003574E-01  1.892663186608E-01  1.949421215896E-01  2.011055178210E-01  2.074755532958E-01
 ZONE t = "whisker load points"
 DATAPACKING=block
 zonetype =FELINESEG
 N=           7 , E=           6
 strandid =            3
 solutiontime =   150.00000000000000     
 VARSHARELIST = ([1]=1,[2]=1,[3]=1)
 CONNECTIVITYSHAREZONE =           1
 -1.397668323148E-04 -1.273466708367E-03 -3.236539399412E-03 -5.755653362003E-03 -8.611832433190E-03 -1.164059849507E-02 -1.473213148268E-02
 -1.098809300113E-05 -9.065477365575E-05 -2.298605367180E-04 -4.087677987371E-04 -6.116590889537E-04 -8.268368028976E-04 -1.046546406814E-03
 -1.621137353966E-09 -3.490663727891E-08 -1.295163213170E-07 -2.840632370656E-07 -4.823311314553E-07 -7.051606798016E-07 -9.372959726895E-07
 -6.121826649166E-01 -6.122794913101E-01 -6.124532858898E-01 -6.126833389549E-01 -6.129505139382E-01 -6.132384125034E-01 -6.135346677021E-01
 -8.274048134855E-03 -8.204034654171E-03 -8.077345607676E-03 -7.908631328123E-03 -7.711911527902E-03 -7.499551015454E-03 -7.280912421247E-03
  0.000000000000E+00  0.000000000000E+00 -6.751280699383E-05 -8.052917098205E-05 -8.787387535530E-05 -9.115803970590E-05 -9.199967134257E-05
 -3.050434240715E-03 -3.050431230143E-03 -3.050426045179E-03 -3.050419397274E-03 -3.050411860349E-03 -3.050403867973E-03 -3.050395710932E-03
 -1.344052121756E-03 -1.344077814254E-03 -1.344122308003E-03 -1.344179406276E-03 -1.344244145363E-03 -1.344312797295E-03 -1.344382873130E-03
  0.000000000000E+00  0.000000000000E+00  0.000000000000E+00  0.000000000000E+00  0.000000000000E+00  0.000000000000E+00  0.000000000000E+00
  1.658786915062E-01  1.644470589287E-01  1.618581434636E-01  1.584132466341E-01  1.544003041824E-01  1.500726583873E-01  1.456216825400E-01
 ZONE t = "whisker load points"
 DATAPACKING=block
 zonetype =FELINESEG
 N=           7 , E=           6
 strandid =            3
 solutiontime =   162.50000000000000     
 VARSHARELIST = ([1]=1,[2]=1,[3]=1)
 CONNECTIVITYSHAREZONE =           1
 -1.384110199717E-04 -1.260708494427E-03 -3.203285235790E-03 -5.695244616648E-03 -8.519873977746E-03 -1.151464566739E-02 -1.457121245581E-02
 -1.203134433804E-05 -9.972681500459E-05 -2.538561938810E-04 -4.529401452871E-04 -6.795730064626E-04 -9.205100821007E-04 -1.166788679738E-03
 -1.590517455549E-09 -3.424514969855E-08 -1.270043416049E-07 -2.784383456166E-07 -4.726199344701E-07 -6.907868969675E-07 -9.180293409897E-07
 -6.122712034723E-01 -6.121928594311E-01 -6.120518552861E-01 -6.118648300483E-01 -6.116472916706E-01 -6.114126846805E-01 -6.111712349023E-01
 -7.649464159461E-03 -7.692109931621E-03 -7.767525178678E-03 -7.865922032157E-03 -7.978715955889E-03 -8.099035313387E-03 -8.222129295557E-03
  0.000000000000E+00  0.000000000000E+00 -6.675828838201E-05 -7.955318615766E-05 -8.672408462433E-05 -8.988050237579E-05 -9.063030295287E-05
 -3.089538830436E-03 -3.089536472714E-03 -3.089532444432E-03 -3.089527307406E-03 -3.089521506073E-03 -3.089515369481E-03 -3.089509114024E-03
 -1.306831808890E-03 -1.306857606391E-03 -1.306902268438E-03 -1.306959567239E-03 -1.307024519779E-03 -1.307093388138E-03 -1.307163679895E-03
  0.000000000000E+00  0.000000000000E+00  0.000000000000E+00  0.000000000000E+00  0.000000000000E+00  0.000000000000E+00  0.000000000000E+00
  1.533185558808E-01  1.541941767688E-01  1.557438463070E-01  1.577676718328E-01  1.600900479204E-01  1.625699708553E-01  1.651095469749E-01
 ZONE t = "whisker load points"
 DATAPACKING=block
 zonetype =FELINESEG
 N=           7 , E=           6
 strandid =            3
 solutiontime =   175.00000000000003     
 VARSHARELIST = ([1]=1,[2]=1,[3]=1)
 CONNECTIVITYSHAREZONE =           1
 -1.394604030889E-04 -1.270230199185E-03 -3.227406863218E-03 -5.738024235605E-03 -8.583739308253E-03 -1.160081945907E-02 -1.468012538353E-02
 -7.034098175804E-06 -5.894925738491E-05 -1.515213572465E-04 -2.727083433497E-04 -4.121976508510E-04 -5.616328326943E-04 -7.149730127253E-04
 -1.609344312267E-09 -3.462924492963E-08 -1.284132511450E-07 -2.815118806669E-07 -4.778224155265E-07 -6.983775291508E-07 -9.281043011689E-07
 -6.177143776886E-01 -6.177826298438E-01 -6.179067080843E-01 -6.180727651402E-01 -6.182673119319E-01 -6.184781477170E-01 -6.186956779522E-01
 -2.792743583714E-03 -2.817241385651E-03 -2.867560954589E-03 -2.941999253596E-03 -3.036175241189E-03 -3.143411957555E-03 -3.256657560935E-03
  0.000000000000E+00  0.000000000000E+00 -6.784849965913E-05 -8.089605446863E-05 -8.824474323177E-05 -9.152094862419E-05 -9.235201085372E-05
 -3.120048692997E-03 -3.120047993594E-03 -3.120046845643E-03 -3.120045429015E-03 -3.120043871878E-03 -3.120042256003E-03 -3.120040625088E-03
 -1.315095086205E-03 -1.315121326576E-03 -1.315166749205E-03 -1.315225020916E-03 -1.315291074694E-03 -1.315361109732E-03 -1.315432591669E-03
  0.000000000000E+00  0.000000000000E+00  0.000000000000E+00  0.000000000000E+00  0.000000000000E+00  0.000000000000E+00  0.000000000000E+00
  5.543600016870E-02  5.591633055442E-02  5.690411772488E-02  5.836631462617E-02  6.021666017199E-02  6.232334982499E-02  6.454714204384E-02
 ZONE t = "whisker load points"
 DATAPACKING=block
 zonetype =FELINESEG
 N=           7 , E=           6
 strandid =            3
 solutiontime =   187.50000000000003     
 VARSHARELIST = ([1]=1,[2]=1,[3]=1)
 CONNECTIVITYSHAREZONE =           1
 -1.404596073626E-04 -1.279615334695E-03 -3.251837383196E-03 -5.782361347187E-03 -8.651187958092E-03 -1.169316597626E-02 -1.479808834438E-02
  8.319430413835E-07  7.760992480521E-06  2.159407399717E-05  4.128783579999E-05  6.527281702712E-05  9.184379569826E-05  1.195448329987E-04
 -1.628884621567E-09 -3.507153330317E-08 -1.300976915680E-07 -2.852859986329E-07 -4.843394827077E-07 -7.080245954015E-07 -9.410371189417E-07
 -6.177560611640E-01 -6.177255938697E-01 -6.176712918094E-01 -6.176000447663E-01 -6.175180939567E-01 -6.174305074387E-01 -6.173408049228E-01
 -2.094097907349E-03 -2.153568954676E-03 -2.261607465602E-03 -2.406537540617E-03 -2.577348534692E-03 -2.763651366376E-03 -2.956597320103E-03
  0.000000000000E+00  0.000000000000E+00 -6.833549026206E-05 -8.146215624364E-05 -8.883566916793E-05 -9.209700698923E-05 -9.288947756860E-05
 -3.156329269495E-03 -3.156327650063E-03 -3.156324803334E-03 -3.156321105015E-03 -3.156316873048E-03 -3.156312358441E-03 -3.156307736157E-03
 -1.275295960428E-03 -1.275322591378E-03 -1.275368695485E-03 -1.275427848900E-03 -1.275494909080E-03 -1.275566016187E-03 -1.275638594862E-03
  0.000000000000E+00  0.000000000000E+00  0.000000000000E+00  0.000000000000E+00  0.000000000000E+00  0.000000000000E+00  0.000000000000E+00
  4.156019587435E-02  4.274301420088E-02  4.489207184199E-02  4.777555448297E-02  5.117482310462E-02  5.488348300770E-02  5.872564370611E-02
 ZONE t = "whisker load points"
 DATAPACKING=block
 zonetype =FELINESEG
 N=           7 , E=           6
 strandid =            3
 solutiontime =   200.00000000000000     
 VARSHARELIST = ([1]=1,[2]=1,[3]=1)
 CONNECTIVITYSHAREZONE =           1
 -1.386676069489E-04 -1.262749890250E-03 -3.207865323481E-03 -5.702454504541E-03 -8.529501458337E-03 -1.152643274598E-02 -1.458499470170E-02
 -5.256543061555E-07 -4.038479430648E-06 -9.619464497725E-06 -1.619277348341E-05 -2.314781609570E-05 -3.019636481173E-05 -3.724348424601E-05
 -1.587818375361E-09 -3.414916060444E-08 -1.265761273221E-07 -2.773798490019E-07 -4.706662294380E-07 -6.877615452498E-07 -9.138521956483E-07
 -6.178095996259E-01 -6.178264823296E-01 -6.178565415547E-01 -6.178962285407E-01 -6.179423033294E-01 -6.179919986448E-01 -6.180431786175E-01
 -1.363438329954E-03 -1.304066744226E-03 -1.196072889866E-03 -1.052035375192E-03 -8.840164832790E-04 -7.026516674982E-04 -5.159676404496E-04
  0.000000000000E+00  0.000000000000E+00 -6.740307006778E-05 -8.033130245388E-05 -8.759352662198E-05 -9.081285704059E-05 -9.160891477297E-05
 -3.192276889159E-03 -3.192275816873E-03 -3.192273949456E-03 -3.192271540358E-03 -3.192268798011E-03 -3.192265882600E-03 -3.192262903131E-03
 -1.234391887745E-03 -1.234418346973E-03 -1.234464131941E-03 -1.234522850689E-03 -1.234589395309E-03 -1.234659939390E-03 -1.234731935041E-03
  0.000000000000E+00  0.000000000000E+00  0.000000000000E+00  0.000000000000E+00  0.000000000000E+00  0.000000000000E+00  0.000000000000E+00
  2.705361015498E-02  2.587458265023E-02  2.373024281638E-02  2.087067468960E-02  1.753565069117E-02  1.393649202589E-02  1.023260706350E-02
 ZONE t = "whisker load points"
 DATAPACKING=block
 zonetype =FELINESEG
 N=           7 , E=           6
 strandid =            3
 solutiontime =   212.50000000000003     
 VARSHARELIST = ([1]=1,[2]=1,[3]=1)
 CONNECTIVITYSHAREZONE =           1
 -1.407937273423E-04 -1.282743249328E-03 -3.259952294527E-03 -5.797038405950E-03 -8.673444746626E-03 -1.172355634245E-02 -1.483682862779E-02
 -3.691659253832E-06 -3.120647829622E-05 -8.077150634437E-05 -1.461918227193E-04 -2.219291425041E-04 -3.033502505298E-04 -3.870350338018E-04
 -1.637744788901E-09 -3.526421804577E-08 -1.308290260120E-07 -2.869205889211E-07 -4.871558919797E-07 -7.121862017927E-07 -9.466088004716E-07
 -6.178563973856E-01 -6.178377102444E-01 -6.178038418385E-01 -6.177586534113E-01 -6.177058163602E-01 -6.176486106241E-01 -6.175896093266E-01
 -6.904372384169E-04 -7.016219302351E-04 -7.205343557667E-04 -7.441646079398E-04 -7.702010169474E-04 -7.971382779332E-04 -8.242405832888E-04
  0.000000000000E+00  0.000000000000E+00 -6.852868412046E-05 -8.170110559238E-05 -8.910458491397E-05 -9.238298413366E-05 -9.318380545956E-05
 -3.227298219119E-03 -3.227297967829E-03 -3.227297578067E-03 -3.227297120584E-03 -3.227296638421E-03 -3.227296152729E-03 -3.227295669927E-03
 -1.195705850685E-03 -1.195732918915E-03 -1.195779787393E-03 -1.195839929291E-03 -1.195908116776E-03 -1.195980423888E-03 -1.196054229831E-03
  0.000000000000E+00  0.000000000000E+00  0.000000000000E+00  0.000000000000E+00  0.000000000000E+00  0.000000000000E+00  0.000000000000E+00
  1.369720694649E-02  1.391954108695E-02  1.429557732712E-02  1.476554671882E-02  1.528352985906E-02  1.581959788339E-02  1.635909359678E-02
 ZONE t = "whisker load points"
 DATAPACKING=block
 zonetype =FELINESEG
 N=           7 , E=           6
 strandid =            3
 solutiontime =   225.00000000000003     
 VARSHARELIST = ([1]=1,[2]=1,[3]=1)
 CONNECTIVITYSHAREZONE =           1
 -1.385765813745E-04 -1.261908935300E-03 -3.205703152328E-03 -5.698569635054E-03 -8.523637525862E-03 -1.151845075393E-02 -1.457484044739E-02
  3.168329458372E-06  2.536161538093E-05  6.252273639043E-05  1.083015359171E-04  1.583318740418E-04  2.099907144644E-04  2.620210852884E-04
 -1.586312706263E-09 -3.411676860077E-08 -1.264518742052E-07 -2.770984253181E-07 -4.701755054232E-07 -6.870296311096E-07 -9.128659305304E-07
 -6.175524282508E-01 -6.175736239580E-01 -6.176123644030E-01 -6.176644862069E-01 -6.177258263491E-01 -6.177925152128E-01 -6.178614309230E-01
  4.365172283221E-03  4.290469973209E-03  4.149605780940E-03  3.955176195890E-03  3.721648105637E-03  3.464321189090E-03  3.196697541008E-03