variables="x","y","z","u","v","w","load_fx","load_fy","load_fz","flow_u","flow_v","flow_w","AOA"
 ZONE t = "whisker load points"
 DATAPACKING=block
 zonetype =FELINESEG
 N=           7 , E=           6
 strandid =            3
 solutiontime =   0.0000000000000000     
PASSIVEVARLIST=[4,5,6,7,8,9,10,11,12,13,]
  1.700000000000E+02  1.700000000000E+02  1.700000000000E+02  1.700000000000E+02  1.700000000000E+02  1.700000000000E+02  1.700000000000E+02
  5.500000000000E+02  5.500000000000E+02  5.500000000000E+02  5.500000000000E+02  5.500000000000E+02  5.500000000000E+02  5.500000000000E+02
  1.034400000000E+01  3.103200000000E+01  5.172000000000E+01  7.240800000000E+01  9.309600000000E+01  1.137840000000E+02  1.344720000000E+02
           1           2
           2           3
           3           4
           4           5
           5           6
           6           7
 ZONE t = "whisker load points"
 DATAPACKING=block
 zonetype =FELINESEG
 N=           7 , E=           6
 strandid =            3
 solutiontime =   12.500000000000000     
 VARSHARELIST = ([1]=1,[2]=1,[3]=1)
 CONNECTIVITYSHAREZONE =           1
 -7.650595184492E-08 -7.017429002053E-07 -1.799701653629E-06 -3.226050693457E-06 -4.858921156471E-06 -6.601730737108E-06 -8.386483729519E-06
 -5.343791503496E-07 -4.407008606140E-06 -1.117801212578E-05 -1.987639636575E-05 -2.973102426798E-05 -4.017149743764E-05 -5.082503114903E-05
 -1.907155166836E-14 -4.173429892802E-13 -1.565459466007E-12 -3.446595735537E-12 -5.859308817451E-12 -8.568918352226E-12 -1.139164205545E-11
 -2.182862120190E-04 -2.182544738378E-04 -2.182005441008E-04 -2.181338837271E-04 -2.180614816104E-04 -2.179873941705E-04 -2.179132392209E-04
 -3.604314034286E-04 -3.602822675334E-04 -3.600262020774E-04 -3.597056494719E-04 -3.593530524379E-04 -3.589885097926E-04 -3.586214542544E-04
  0.000000000000E+00  0.000000000000E+00  0.000000000000E+00  0.000000000000E+00  0.000000000000E+00  0.000000000000E+00  0.000000000000E+00
 -3.178365517811E-03 -3.178365599007E-03 -3.178365740926E-03 -3.178365923089E-03 -3.178366129302E-03 -3.178366347648E-03 -3.178366570388E-03
 -1.420951148200E-03 -1.420951200120E-03 -1.420951291004E-03 -1.420951408115E-03 -1.420951541173E-03 -1.420951682430E-03 -1.420951826713E-03
  0.000000000000E+00  0.000000000000E+00  0.000000000000E+00  0.000000000000E+00  0.000000000000E+00  0.000000000000E+00  0.000000000000E+00
  2.408695500845E+01  2.407928385026E+01  2.406603558483E+01  2.404933423817E+01  2.403083604737E+01  2.401160359713E+01  2.399217334475E+01
 ZONE t = "whisker load points"
 DATAPACKING=block
 zonetype =FELINESEG
 N=           7 , E=           6
 strandid =            3
 solutiontime =   25.000000000000000     
 VARSHARELIST = ([1]=1,[2]=1,[3]=1)
 CONNECTIVITYSHAREZONE =           1
 -1.990285376296E-04 -1.832585814407E-03 -4.697324413338E-03 -8.415088756935E-03 -1.266796544566E-02 -1.720486586583E-02 -2.184960018821E-02
 -1.885572542409E-05 -1.537896822444E-04 -3.857062238952E-04 -6.788240434458E-04 -1.006342126208E-03 -1.349943525535E-03 -1.698827635417E-03
 -3.324749759192E-09 -7.284736990340E-08 -2.749581167085E-07 -6.120222635511E-07 -1.051640779199E-06 -1.551261008044E-06 -2.074660967583E-06
 -6.157359485360E-01 -6.151292102605E-01 -6.140183393669E-01 -6.125108289773E-01 -6.107180769478E-01 -6.087532361164E-01 -6.067163575428E-01
 -1.824174354670E-02 -1.804818043001E-02 -1.766977646737E-02 -1.713022488990E-02 -1.646635543080E-02 -1.572435693189E-02 -1.494892196456E-02
  0.000000000000E+00 -6.885613645289E-05 -9.945694775796E-05 -1.195045029224E-04 -1.309354992671E-04 -1.359206177758E-04 -1.368705367186E-04
 -3.225575609067E-03 -3.225564127113E-03 -3.225543882729E-03 -3.225517428893E-03 -3.225486987513E-03 -3.225454379137E-03 -3.225420928503E-03
 -1.375124295045E-03 -1.375163168160E-03 -1.375231297258E-03 -1.375319643407E-03 -1.375420636899E-03 -1.375528324531E-03 -1.375638547141E-03
  0.000000000000E+00  0.000000000000E+00  0.000000000000E+00  0.000000000000E+00  0.000000000000E+00  0.000000000000E+00  0.000000000000E+00
  3.642099936742E-01  3.606900970814E-01  3.537459271247E-01  3.437593194176E-01  3.313725728963E-01  3.174244673970E-01  3.027465624999E-01
 ZONE t = "whisker load points"
 DATAPACKING=block
 zonetype =FELINESEG
 N=           7 , E=           6
 strandid =            3
 solutiontime =   37.500000000000000     
 VARSHARELIST = ([1]=1,[2]=1,[3]=1)
 CONNECTIVITYSHAREZONE =           1
 -8.528210169638E-05 -7.615408483089E-04 -1.904304498034E-03 -3.339357213686E-03 -4.938846941662E-03 -6.615644676529E-03 -8.317394305820E-03
 -3.981056884416E-05 -3.322941267128E-04 -8.506258097354E-04 -1.524650263045E-03 -2.295619265622E-03 -3.117643879436E-03 -3.959074981185E-03
 -6.791915874718E-10 -1.461368007362E-08 -5.310737774366E-08 -1.143003867001E-07 -1.911413226544E-07 -2.762810512271E-07 -3.643576072127E-07
 -6.161197475926E-01 -6.163966591965E-01 -6.169081861727E-01 -6.176039647634E-01 -6.184294141688E-01 -6.193310778205E-01 -6.202648301715E-01
 -1.763725974701E-02 -1.759481390404E-02 -1.750895434629E-02 -1.738004416381E-02 -1.721215179019E-02 -1.701555738304E-02 -1.680444968410E-02
  0.000000000000E+00  0.000000000000E+00  0.000000000000E+00  0.000000000000E+00  0.000000000000E+00  0.000000000000E+00  0.000000000000E+00
 -3.283938260222E-03 -3.283939378065E-03 -3.283941836791E-03 -3.283945471319E-03 -3.283949988722E-03 -3.283955050903E-03 -3.283960358271E-03
 -1.331990819943E-03 -1.332009351547E-03 -1.332040875027E-03 -1.332080661453E-03 -1.332125177552E-03 -1.332171964799E-03 -1.332219510591E-03
  0.000000000000E+00  0.000000000000E+00  0.000000000000E+00  0.000000000000E+00  0.000000000000E+00  0.000000000000E+00  0.000000000000E+00
  3.518851154780E-01  3.508775878180E-01  3.488699443900E-01  3.459025934232E-01  3.420929333827E-01  3.376806920791E-01  3.329759282639E-01
 ZONE t = "whisker load points"
 DATAPACKING=block
 zonetype =FELINESEG
 N=           7 , E=           6
 strandid =            3
 solutiontime =   50.000000000000000     
 VARSHARELIST = ([1]=1,[2]=1,[3]=1)
 CONNECTIVITYSHAREZONE =           1
 -1.844763352536E-04 -1.693767094765E-03 -4.331331432434E-03 -7.743536826576E-03 -1.163711888010E-02 -1.578373508934E-02 -2.002535406396E-02
 -2.934068635663E-05 -2.434488364590E-04 -6.200421511555E-04 -1.106554641608E-03 -1.660246623404E-03 -2.248655386975E-03 -2.849949382708E-03
 -2.905468445273E-09 -6.305704618204E-08 -2.369914263704E-07 -5.256652869520E-07 -9.006921203897E-07 -1.325756152350E-06 -1.770443196547E-06
 -6.163532148544E-01 -6.162776191276E-01 -6.161493377951E-01 -6.159911866328E-01 -6.158212977107E-01 -6.156501043142E-01 -6.154805104648E-01
 -1.705386852499E-02 -1.723278159093E-02 -1.755612136057E-02 -1.798367998541E-02 -1.847837789371E-02 -1.900891230358E-02 -1.955294607380E-02
  0.000000000000E+00 -6.373321031997E-05 -9.190575838048E-05 -1.103795606188E-04 -1.210292884117E-04 -1.258781392551E-04 -1.271167520728E-04
 -3.341247802461E-03 -3.341240276512E-03 -3.341227183317E-03 -3.341210228064E-03 -3.341190845377E-03 -3.341170171930E-03 -3.341149009702E-03
 -1.289718452869E-03 -1.289756627593E-03 -1.289823360256E-03 -1.289909686659E-03 -1.290008180134E-03 -1.290113064966E-03 -1.290220349204E-03
  0.000000000000E+00  0.000000000000E+00  0.000000000000E+00  0.000000000000E+00  0.000000000000E+00  0.000000000000E+00  0.000000000000E+00
  3.400830298660E-01  3.437035087979E-01  3.502446564881E-01  3.588927263608E-01  3.688980417241E-01  3.796293582735E-01  3.906381543211E-01
 ZONE t = "whisker load points"
 DATAPACKING=block
 zonetype =FELINESEG
 N=           7 , E=           6
 strandid =            3
 solutiontime =   62.499999999999993     
 VARSHARELIST = ([1]=1,[2]=1,[3]=1)
 CONNECTIVITYSHAREZONE =           1
 -1.031439673899E-04 -9.286067227504E-04 -2.337068038645E-03 -4.120616488924E-03 -6.121310203714E-03 -8.227513981726E-03 -1.036952395342E-02
 -1.468758934951E-05 -1.190571479436E-04 -2.971060831752E-04 -5.207865039074E-04 -7.696845408014E-04 -1.030174800957E-03 -1.294350167681E-03
 -8.884582794486E-10 -1.881319571299E-08 -6.838360952032E-08 -1.473149999684E-07 -2.464865689427E-07 -3.563375026088E-07 -4.699366500441E-07
 -6.166273917463E-01 -6.165765552065E-01 -6.164873035877E-01 -6.163713208125E-01 -6.162384236284E-01 -6.160964866471E-01 -6.159511091970E-01
 -1.640623659068E-02 -1.644395786542E-02 -1.651419084618E-02 -1.661021154250E-02 -1.672512777744E-02 -1.685188342512E-02 -1.698396582451E-02
  0.000000000000E+00  0.000000000000E+00  0.000000000000E+00  0.000000000000E+00 -6.180233994708E-05 -6.372171203865E-05 -6.413414636768E-05
 -3.398281999768E-03 -3.398277935770E-03 -3.398271000508E-03 -3.398262174013E-03 -3.398252222893E-03 -3.398241708887E-03 -3.398230997600E-03
 -1.246297099157E-03 -1.246318321819E-03 -1.246354533825E-03 -1.246400375861E-03 -1.246451783608E-03 -1.246505890578E-03 -1.246560911619E-03
  0.000000000000E+00  0.000000000000E+00  0.000000000000E+00  0.000000000000E+00  0.000000000000E+00  0.000000000000E+00  0.000000000000E+00
  3.269865823982E-01  3.277675707413E-01  3.292191660232E-01  3.312012324497E-01  3.335712080755E-01  3.361840976595E-01  3.389068013049E-01
 ZONE t = "whisker load points"
 DATAPACKING=block
 zonetype =FELINESEG
 N=           7 , E=           6
 strandid =            3
 solutiontime =   75.000000000000000     
 VARSHARELIST = ([1]=1,[2]=1,[3]=1)
 CONNECTIVITYSHAREZONE =           1
 -1.668863359176E-04 -1.528323942069E-03 -3.900145809946E-03 -6.960136260235E-03 -1.044419257592E-02 -1.414918615124E-02 -1.793625643960E-02
 -1.594797422246E-05 -1.321403165426E-04 -3.363134088131E-04 -6.000852788857E-04 -9.004997284469E-04 -1.220049561556E-03 -1.546811958214E-03
 -2.333163525308E-09 -5.058633050176E-08 -1.893423313161E-07 -4.184272876243E-07 -7.148102031082E-07 -1.049802444360E-06 -1.399771045605E-06
 -6.143770984555E-01 -6.145013147704E-01 -6.147246906473E-01 -6.150213514955E-01 -6.153669576496E-01 -6.157401411921E-01 -6.161245006893E-01
 -1.034224894699E-02 -1.025023479093E-02 -1.009388009427E-02 -9.900844087085E-03 -9.691367708597E-03 -9.477119031933E-03 -9.262580905965E-03
  0.000000000000E+00  0.000000000000E+00 -8.212641479343E-05 -9.844830936755E-05 -1.078225939458E-04 -1.121012832546E-04 -1.132413552042E-04
 -3.395246998687E-03 -3.395243163447E-03 -3.395236525894E-03 -3.395227971163E-03 -3.395218232460E-03 -3.395207877499E-03 -3.395197295543E-03
 -1.186070292550E-03 -1.186105261923E-03 -1.186166192359E-03 -1.186244803627E-03 -1.186334310442E-03 -1.186429494776E-03 -1.186526789720E-03
  0.000000000000E+00  0.000000000000E+00  0.000000000000E+00  0.000000000000E+00  0.000000000000E+00  0.000000000000E+00  0.000000000000E+00
  2.066726801495E-01  2.047892699052E-01  2.015867417507E-01  1.976296106779E-01  1.933326230678E-01  1.889369960195E-01  1.845378901898E-01
 ZONE t = "whisker load points"
 DATAPACKING=block
 zonetype =FELINESEG
 N=           7 , E=           6
 strandid =            3
 solutiontime =   87.500000000000014     
 VARSHARELIST = ([1]=1,[2]=1,[3]=1)
 CONNECTIVITYSHAREZONE =           1
 -1.182102323040E-04 -1.070552694977E-03 -2.707487624288E-03 -4.794311338103E-03 -7.148005852913E-03 -9.635123965572E-03 -1.216931338855E-02
 -1.587810120142E-05 -1.318937741023E-04 -3.364199639936E-04 -6.014172942257E-04 -9.039186543251E-04 -1.226170069206E-03 -1.555914757627E-03
 -1.161879971706E-09 -2.489765368235E-08 -9.149915616244E-08 -1.990003227548E-07 -3.355576182391E-07 -4.880093477630E-07 -6.462964549027E-07
 -6.145095863521E-01 -6.143467125702E-01 -6.140541340552E-01 -6.136667304325E-01 -6.132169815614E-01 -6.127327582545E-01 -6.122349543812E-01
 -9.627059865204E-03 -9.704595059150E-03 -9.847974806072E-03 -1.004399998319E-02 -1.027885891223E-02 -1.053790959395E-02 -1.080753614278E-02
  0.000000000000E+00  0.000000000000E+00  0.000000000000E+00 -6.671961037906E-05 -7.240430616516E-05 -7.482556357308E-05 -7.535034586242E-05
 -3.442124130436E-03 -3.442122816401E-03 -3.442120688717E-03 -3.442118085184E-03 -3.442115241023E-03 -3.442112302043E-03 -3.442109343013E-03
 -1.139417937340E-03 -1.139442981462E-03 -1.139486052394E-03 -1.139540980905E-03 -1.139602951156E-03 -1.139668446943E-03 -1.139735189354E-03
  0.000000000000E+00  0.000000000000E+00  0.000000000000E+00  0.000000000000E+00  0.000000000000E+00  0.000000000000E+00  0.000000000000E+00
  1.923160360989E-01  1.939189465365E-01  1.968826718747E-01  2.009352904692E-01  2.057930155970E-01  2.111557541954E-01  2.167447600871E-01
 ZONE t = "whisker load points"
 DATAPACKING=block
 zonetype =FELINESEG
 N=           7 , E=           6
 strandid =            3
 solutiontime =   100.00000000000000     
 VARSHARELIST = ([1]=1,[2]=1,[3]=1)
 CONNECTIVITYSHAREZONE =           1
 -1.537243193446E-04 -1.404587673804E-03 -3.577892061659E-03 -6.375160809658E-03 -9.554228635012E-03 -1.293075310410E-02 -1.637997697003E-02
 -1.250986726368E-05 -1.034554258436E-04 -2.628819280173E-04 -4.684020446938E-04 -7.020628996750E-04 -9.503037967906E-04 -1.203984852678E-03
 -1.967259809746E-09 -4.255350470240E-08 -1.586645642623E-07 -3.494633536006E-07 -5.953969680088E-07 -8.726776655552E-07 -1.161996678474E-06
 -6.147052081045E-01 -6.148860055262E-01 -6.152109841281E-01 -6.156416391226E-01 -6.161422222550E-01 -6.166819397022E-01 -6.172375049156E-01
 -8.867419896160E-03 -8.835354521805E-03 -8.778471817973E-03 -8.703853915755E-03 -8.618074243000E-03 -8.526577111355E-03 -8.433043035726E-03
  0.000000000000E+00  0.000000000000E+00 -7.519765823594E-05 -8.997122847142E-05 -9.841220567829E-05 -1.022538469350E-04 -1.032885396430E-04
 -3.487314603238E-03 -3.487311662067E-03 -3.487306588826E-03 -3.487300067147E-03 -3.487292657188E-03 -3.487284788137E-03 -3.487276751454E-03
 -1.091862372560E-03 -1.091895393487E-03 -1.091952771695E-03 -1.092026625245E-03 -1.092110560168E-03 -1.092199709639E-03 -1.092290780065E-03
  0.000000000000E+00  0.000000000000E+00  0.000000000000E+00  0.000000000000E+00  0.000000000000E+00  0.000000000000E+00  0.000000000000E+00
  1.770618346685E-01  1.763686576320E-01  1.751388048312E-01  1.735262757649E-01  1.716738365565E-01  1.696997147566E-01  1.676842374950E-01
 ZONE t = "whisker load points"
 DATAPACKING=block
 zonetype =FELINESEG
 N=           7 , E=           6
 strandid =            3
 solutiontime =   112.50000000000001     
 VARSHARELIST = ([1]=1,[2]=1,[3]=1)
 CONNECTIVITYSHAREZONE =           1
 -1.291501442232E-04 -1.173436169076E-03 -2.975550698070E-03 -5.281145524964E-03 -7.888993216935E-03 -1.064998102995E-02 -1.346593571835E-02
 -1.043470751704E-05 -8.599694570790E-05 -2.178454442740E-04 -3.870783677476E-04 -5.787905698895E-04 -7.819463978899E-04 -9.892734606819E-04
 -1.377713834750E-09 -2.961613371163E-08 -1.093857108755E-07 -2.389439965108E-07 -4.043758808048E-07 -5.897135980047E-07 -7.824863228483E-07
 -6.148133631861E-01 -6.146448538239E-01 -6.143420585836E-01 -6.139410236108E-01 -6.134751962656E-01 -6.129733690269E-01 -6.124572658893E-01
 -8.107584201745E-03 -8.165379632212E-03 -8.268045323836E-03 -8.402416803191E-03 -8.556824681925E-03 -8.721798057414E-03 -8.890680148323E-03
  0.000000000000E+00  0.000000000000E+00 -6.208071292402E-05 -7.377288747823E-05 -8.024607073211E-05 -8.304247117142E-05 -8.366448102186E-05
 -3.532286327809E-03 -3.532284367772E-03 -3.532281023494E-03 -3.532276759066E-03 -3.532271943004E-03 -3.532266848700E-03 -3.532261656041E-03
 -1.042607441894E-03 -1.042635454846E-03 -1.042683802429E-03 -1.042745660160E-03 -1.042815628957E-03 -1.042889707946E-03 -1.042965262913E-03
  0.000000000000E+00  0.000000000000E+00  0.000000000000E+00  0.000000000000E+00  0.000000000000E+00  0.000000000000E+00  0.000000000000E+00
  1.618404028459E-01  1.630404299992E-01  1.651747334654E-01  1.679727538819E-01  1.711940678811E-01  1.746425836553E-01  1.781795620770E-01
 ZONE t = "whisker load points"
 DATAPACKING=block
 zonetype =FELINESEG
 N=           7 , E=           6
 strandid =            3
 solutiontime =   125.00000000000000     
 VARSHARELIST = ([1]=1,[2]=1,[3]=1)
 CONNECTIVITYSHAREZONE =           1
 -1.448114492281E-04 -1.320807846764E-03 -3.359682482903E-03 -5.978983432296E-03 -8.951366839105E-03 -1.210521915636E-02 -1.532537538843E-02
 -6.108565924640E-06 -5.142005893691E-05 -1.326958490591E-04 -2.396900026247E-04 -3.634200855483E-04 -4.964116822728E-04 -6.331146073867E-04
 -1.736003449291E-09 -3.743979043366E-08 -1.391686504094E-07 -3.057184742780E-07 -5.197719502849E-07 -7.606367996117E-07 -1.011713381758E-06
 -6.137296325729E-01 -6.138865587854E-01 -6.141701754690E-01 -6.145480595106E-01 -6.149893222653E-01 -6.154665649723E-01 -6.159585420063E-01
 -1.886219187457E-03 -1.858014722185E-03 -1.814721405112E-03 -1.766886684046E-03 -1.720714818826E-03 -1.677925575549E-03 -1.637368328503E-03
  0.000000000000E+00  0.000000000000E+00 -7.029680042180E-05 -8.395678734600E-05 -9.171016140275E-05 -9.521083081963E-05 -9.613839810234E-05
 -3.512981359363E-03 -3.512981981791E-03 -3.512983132887E-03 -3.512984679803E-03 -3.512986496099E-03 -3.512988467967E-03 -3.512990504912E-03
 -9.888314221026E-04 -9.888626788454E-04 -9.889168719807E-04 -9.889864950616E-04 -9.890655057379E-04 -9.891493423654E-04 -9.892349433534E-04
  0.000000000000E+00  0.000000000000E+00  0.000000000000E+00  0.000000000000E+00  0.000000000000E+00  0.000000000000E+00  0.000000000000E+00
  3.767891952910E-02  3.710584261992E-02  3.622424242184E-02  3.524742150654E-02  3.430144148800E-02  3.342227883400E-02  3.258814763751E-02
 ZONE t = "whisker load points"
 DATAPACKING=block
 zonetype =FELINESEG
 N=           7 , E=           6
 strandid =            3
 solutiontime =   137.50000000000003     
 VARSHARELIST = ([1]=1,[2]=1,[3]=1)
 CONNECTIVITYSHAREZONE =           1
 -1.355701745197E-04 -1.233884784277E-03 -3.133183542496E-03 -5.567613959232E-03 -8.325228759357E-03 -1.124766182050E-02 -1.422974302466E-02
  1.835311728239E-06  1.593436102468E-05  4.207020772290E-05  7.728813359709E-05  1.185952191566E-04  1.633224666816E-04  2.094548773562E-04
 -1.515783111653E-09 -3.259868095732E-08 -1.207277886790E-07 -2.643614740655E-07 -4.482954389795E-07 -6.547632441191E-07 -8.697229534298E-07
 -6.137708058614E-01 -6.136551644384E-01 -6.134477226509E-01 -6.131735170484E-01 -6.128556987636E-01 -6.125139365098E-01 -6.121627886383E-01
 -1.133652532585E-03 -1.241509688512E-03 -1.436881091027E-03 -1.698029880344E-03 -2.004526399209E-03 -2.337594189368E-03 -2.681758706355E-03
  0.000000000000E+00  0.000000000000E+00 -6.532541596555E-05 -7.777399888561E-05 -8.472142181799E-05 -8.775848002076E-05 -8.846149535747E-05
 -3.550507211229E-03 -3.550506600985E-03 -3.550505498552E-03 -3.550504039189E-03 -3.550502347823E-03 -3.550500529453E-03 -3.550498660370E-03
 -9.418627251232E-04 -9.418921309831E-04 -9.419429820976E-04 -9.420081608867E-04 -9.420819930202E-04 -9.421602386535E-04 -9.422400820976E-04
  0.000000000000E+00  0.000000000000E+00  0.000000000000E+00  0.000000000000E+00  0.000000000000E+00  0.000000000000E+00  0.000000000000E+00
  2.264132934457E-02  2.480057963555E-02  2.871400212206E-02  3.394936103589E-02  4.010013069743E-02  4.679182002565E-02  5.371492472858E-02
 ZONE t = "whisker load points"
 DATAPACKING=block
 zonetype =FELINESEG
 N=           7 , E=           6
 strandid =            3
 solutiontime =   150.00000000000000     
 VARSHARELIST = ([1]=1,[2]=1,[3]=1)
 CONNECTIVITYSHAREZONE =           1
 -1.400838283170E-04 -1.276337172363E-03 -3.243799546274E-03 -5.768511968166E-03 -8.631008427211E-03 -1.166645210646E-02 -1.476478967599E-02
  1.079832818743E-06  9.243162163588E-06  2.411876306128E-05  4.387724787172E-05  6.680734806623E-05  9.145872435464E-05  1.167726399164E-04
 -1.620475069738E-09 -3.489205874325E-08 -1.294543661582E-07 -2.839184449858E-07 -4.820761054343E-07 -7.047787043228E-07 -9.367794188942E-07
 -6.138625364254E-01 -6.139553956915E-01 -6.141154418748E-01 -6.143753952143E-01 -6.146849497698E-01 -6.150185821870E-01 -6.153619182646E-01
 -3.215837262955E-04 -2.294768537556E-04 -2.882907801371E-11  1.601830665156E-04  4.195666492667E-04  6.994307304422E-04  9.875262948528E-04
  0.000000000000E+00  0.000000000000E+00 -6.778321432389E-05 -8.085637903005E-05 -8.823852109706E-05 -9.154516963126E-05 -9.239984263344E-05
 -3.587590782275E-03 -3.587590982685E-03 -3.587591309472E-03 -3.587591710273E-03 -3.587592149650E-03 -3.587592605846E-03 -3.587593066871E-03
 -8.934342915156E-04 -8.934651047830E-04 -8.935184594796E-04 -8.935869267007E-04 -8.936645551528E-04 -8.937468748153E-04 -8.938309011899E-04
  0.000000000000E+00  0.000000000000E+00  0.000000000000E+00  0.000000000000E+00  0.000000000000E+00  0.000000000000E+00  0.000000000000E+00
  6.420836085709E-03  4.581038718072E-03  0.000000000000E+00  3.195506531057E-03  8.366122477952E-03  1.393967826178E-02  1.967140402655E-02
 ZONE t = "whisker load points"
 DATAPACKING=block
 zonetype =FELINESEG
 N=           7 , E=           6
 strandid =            3
 solutiontime =   162.50000000000000     
 VARSHARELIST = ([1]=1,[2]=1,[3]=1)
 CONNECTIVITYSHAREZONE =           1
 -1.388449463535E-04 -1.264673958044E-03 -3.213388119555E-03 -5.713249288392E-03 -8.546861595703E-03 -1.155117672450E-02 -1.461749424261E-02
 -1.669047213941E-06 -1.439283894597E-05 -3.786325907591E-05 -6.945430014270E-05 -1.065483009969E-04 -1.467661833953E-04 -1.882562071968E-04
 -1.590985118170E-09 -3.425459761286E-08 -1.270297141003E-07 -2.784829899886E-07 -4.726847359392E-07 -6.908713377045E-07 -9.181322708434E-07
 -6.140050547427E-01 -6.139178652332E-01 -6.137612258718E-01 -6.135538118640E-01 -6.133129137725E-01 -6.130495046756E-01 -6.127946319834E-01
  4.690499553198E-04  4.273339667099E-04  3.541311848310E-04  2.593763506694E-04  1.516598310496E-04  8.976364096469E-11  9.180808890896E-11
  0.000000000000E+00  0.000000000000E+00 -6.708816017420E-05 -7.994324049680E-05 -8.714535527095E-05 -9.031207099072E-05 -9.106217649928E-05
 -3.625070021630E-03 -3.625071128603E-03 -3.625073084165E-03 -3.625075633232E-03 -3.625078557633E-03 -3.625081682327E-03 -3.625084883230E-03
 -8.436894512681E-04 -8.437202233714E-04 -8.437734866798E-04 -8.438418139313E-04 -8.439192634651E-04 -8.440013791803E-04 -8.440851903976E-04
  0.000000000000E+00  0.000000000000E+00  0.000000000000E+00  0.000000000000E+00  0.000000000000E+00  0.000000000000E+00  0.000000000000E+00
  9.363249642803E-03  8.531660007350E-03  7.071893389963E-03  5.181335331116E-03  3.030710292137E-03  0.000000000000E+00  0.000000000000E+00
 ZONE t = "whisker load points"
 DATAPACKING=block
 zonetype =FELINESEG
 N=           7 , E=           6
 strandid =            3
 solutiontime =   175.00000000000003     
 VARSHARELIST = ([1]=1,[2]=1,[3]=1)
 CONNECTIVITYSHAREZONE =           1
 -1.399037356863E-04 -1.274260788073E-03 -3.237632832271E-03 -5.756182193874E-03 -8.610874397453E-03 -1.163746277372E-02 -1.472646842436E-02
  5.421481872357E-06  4.381852774363E-05  1.090149296655E-04  1.904806360153E-04  2.806509498177E-04  3.746296152176E-04  4.697358718903E-04
 -1.618185675598E-09 -3.481527428388E-08 -1.290863212619E-07 -2.829557597800E-07 -4.802291783410E-07 -7.018462407075E-07 -9.326686188384E-07
 -6.198004142950E-01 -6.198641528329E-01 -6.199788917083E-01 -6.201310436028E-01 -6.203079099170E-01 -6.204985486868E-01 -6.206947196671E-01
  6.389345451519E-03  6.337384200950E-03  6.235984208604E-03  6.092001516701E-03  5.915304466984E-03  5.717928027267E-03  5.511354552940E-03
  0.000000000000E+00  0.000000000000E+00 -6.829880807790E-05 -8.142850433852E-05 -8.882027359799E-05 -9.211230355835E-05 -9.294337007222E-05
 -3.602695607539E-03 -3.602698882311E-03 -3.602704583838E-03 -3.602711955015E-03 -3.602720367389E-03 -3.602729329061E-03 -3.602738496674E-03
 -7.983828298367E-04 -7.984133582862E-04 -7.984661933471E-04 -7.985339611100E-04 -7.986107665819E-04 -7.986921921057E-04 -7.987752951678E-04
  0.000000000000E+00  0.000000000000E+00  0.000000000000E+00  0.000000000000E+00  0.000000000000E+00  0.000000000000E+00  0.000000000000E+00
  1.264776046510E-01  1.254350237994E-01  1.234030685995E-01  1.205213036396E-01  1.169887555680E-01  1.130466756872E-01  1.089243716565E-01
 ZONE t = "whisker load points"
 DATAPACKING=block
 zonetype =FELINESEG
 N=           7 , E=           6
 strandid =            3
 solutiontime =   187.50000000000003     
 VARSHARELIST = ([1]=1,[2]=1,[3]=1)
 CONNECTIVITYSHAREZONE =           1
 -1.409223326599E-04 -1.283820040594E-03 -3.262500721158E-03 -5.801289379328E-03 -8.679465999588E-03 -1.173134482663E-02 -1.484636648998E-02
  1.584585883210E-05  1.322608419574E-04  3.385972756220E-04  6.069968627322E-04  9.141273940376E-04  1.241722472827E-03  1.577131713171E-03
 -1.656356462833E-09 -3.567065384137E-08 -1.323577284883E-07 -2.902991844337E-07 -4.929207299711E-07 -7.206421040652E-07 -9.578741393641E-07
 -6.199587976688E-01 -6.199167395860E-01 -6.198413949599E-01 -6.197419369156E-01 -6.196267506868E-01 -6.195029222176E-01 -6.193756885876E-01
  7.222130437662E-03  7.156948943768E-03  7.038291846647E-03  6.878778460505E-03  6.690375042813E-03  6.484544018358E-03  6.271194816611E-03
  0.000000000000E+00  0.000000000000E+00 -6.888376171907E-05 -8.211056888222E-05 -8.953573800742E-05 -9.281458687156E-05 -9.360453911401E-05
 -3.635359389598E-03 -3.635360967345E-03 -3.635363570073E-03 -3.635366811075E-03 -3.635370408340E-03 -3.635374170410E-03 -3.635377981963E-03
 -7.476005272170E-04 -7.476317741134E-04 -7.476858917444E-04 -7.477553444645E-04 -7.478340945044E-04 -7.479176063212E-04 -7.480028514150E-04
  0.000000000000E+00  0.000000000000E+00  0.000000000000E+00  0.000000000000E+00  0.000000000000E+00  0.000000000000E+00  0.000000000000E+00
  1.429460012207E-01  1.416639558612E-01  1.393294641668E-01  1.361899965451E-01  1.324803544319E-01  1.284258347218E-01  1.242215766322E-01
 ZONE t = "whisker load points"
 DATAPACKING=block
 zonetype =FELINESEG
 N=           7 , E=           6
 strandid =            3
 solutiontime =   200.00000000000000     
 VARSHARELIST = ([1]=1,[2]=1,[3]=1)
 CONNECTIVITYSHAREZONE =           1
 -1.392409455964E-04 -1.267986666454E-03 -3.221201053120E-03 -5.726210352852E-03 -8.565095854960E-03 -1.157459802754E-02 -1.464599961980E-02
  1.353401732011E-05  1.122897383434E-04  2.860140071933E-04  5.105159524506E-04  7.661202712249E-04  1.037846466881E-03  1.315577699895E-03
 -1.613169650412E-09 -3.469848439453E-08 -1.286341457242E-07 -2.819209547304E-07 -4.784083290458E-07 -6.991119204774E-07 -9.289674764971E-07
 -6.201338246214E-01 -6.201614198142E-01 -6.202109905489E-01 -6.202767313939E-01 -6.203532251933E-01 -6.204357749167E-01 -6.205207832926E-01
  8.089167959661E-03  8.164816023249E-03  8.302471275832E-03  8.486012739741E-03  8.700024701148E-03  8.930960345218E-03  9.168625439398E-03
  0.000000000000E+00  0.000000000000E+00 -6.802321218848E-05 -8.107748717539E-05 -8.841541807873E-05 -9.167358268527E-05 -9.248568515662E-05
 -3.667461472786E-03 -3.667463834583E-03 -3.667467844742E-03 -3.667472941575E-03 -3.667478685462E-03 -3.667484753596E-03 -3.667490934877E-03
 -6.954662024513E-04 -6.954971837960E-04 -6.955508083144E-04 -6.956195906470E-04 -6.956975469217E-04 -6.957801929529E-04 -6.958645419046E-04
  0.000000000000E+00  0.000000000000E+00  0.000000000000E+00  0.000000000000E+00  0.000000000000E+00  0.000000000000E+00  0.000000000000E+00
  1.600850512126E-01  1.615769752345E-01  1.642917313894E-01  1.679110378220E-01  1.721305546109E-01  1.766829102270E-01  1.813670055290E-01
 ZONE t = "whisker load points"
 DATAPACKING=block
 zonetype =FELINESEG
 N=           7 , E=           6
 strandid =            3
 solutiontime =   212.50000000000003     
 VARSHARELIST = ([1]=1,[2]=1,[3]=1)
 CONNECTIVITYSHAREZONE =           1
 -1.413070159851E-04 -1.287407575138E-03 -3.271781277466E-03 -5.818035146854E-03 -8.704812362696E-03 -1.176590475121E-02 -1.489037693174E-02
  9.044509281226E-06  7.381095251054E-05  1.853324698260E-04  3.266977388586E-04  4.851971701912E-04  6.519684918297E-04  8.215658750810E-04
 -1.654238611036E-09 -3.561442484823E-08 -1.321163447478E-07 -2.897178093747E-07 -4.918675946509E-07 -7.190322408242E-07 -9.556695369943E-07
 -6.202931909508E-01 -6.202727965317E-01 -6.202361025031E-01 -6.201874618368E-01 -6.201309028719E-01 -6.200699141701E-01 -6.200071449824E-01
  8.891762049287E-03  8.881629725399E-03  8.864821299488E-03  8.844237200655E-03  8.821992495414E-03  8.799337555396E-03  8.776750111613E-03
  0.000000000000E+00  0.000000000000E+00 -6.910066653421E-05 -8.238068587272E-05 -8.984358808197E-05 -9.314750932783E-05 -9.395382163661E-05
 -3.699012693499E-03 -3.699016775153E-03 -3.699023858854E-03 -3.699032995425E-03 -3.699043401908E-03 -3.699054471846E-03 -3.699065787678E-03
 -6.458145311100E-04 -6.458461380647E-04 -6.459008601131E-04 -6.459710689769E-04 -6.460506594711E-04 -6.461350507478E-04 -6.462211875738E-04
  0.000000000000E+00  0.000000000000E+00  0.000000000000E+00  0.000000000000E+00  0.000000000000E+00  0.000000000000E+00  0.000000000000E+00
  1.759467745207E-01  1.757517692150E-01  1.754290635494E-01  1.750348632658E-01  1.746099203219E-01  1.741780163530E-01  1.737478681248E-01
 ZONE t = "whisker load points"
 DATAPACKING=block
 zonetype =FELINESEG
 N=           7 , E=           6
 strandid =            3
 solutiontime =   225.00000000000003     
 VARSHARELIST = ([1]=1,[2]=1,[3]=1)
 CONNECTIVITYSHAREZONE =           1
 -1.389528054320E-04 -1.265326990153E-03 -3.214369465431E-03 -5.713948791298E-03 -8.546607599791E-03 -1.154945586210E-02 -1.461403960410E-02
  1.732474921267E-05  1.422844151248E-04  3.592181811880E-04  6.362085280275E-04  9.485357678898E-04  1.278397159037E-03  1.614478823010E-03
 -1.614224682384E-09 -3.471329690434E-08 -1.286636988735E-07 -2.819304555015E-07 -4.783441617930E-07 -6.989279790769E-07 -9.286402125310E-07
 -6.193143382741E-01 -6.193374289320E-01 -6.193796574825E-01 -6.194364984447E-01 -6.195034230193E-01 -6.195762098954E-01 -6.196514436680E-01
  1.447185426226E-02  1.437993001780E-02  1.420736392601E-02  1.397021699508E-02  1.368639919765E-02  1.337440339638E-02  1.305028655986E-02