variables="x","y","z","u","v","w","load_fx","load_fy","load_fz","flow_u","flow_v","flow_w","AOA"
 ZONE t = "whisker load points"
 DATAPACKING=block
 zonetype =FELINESEG
 N=           7 , E=           6
 strandid =            3
 solutiontime =   0.0000000000000000     
PASSIVEVARLIST=[4,5,6,7,8,9,10,11,12,13,]
  1.300000000000E+02  1.300000000000E+02  1.300000000000E+02  1.300000000000E+02  1.300000000000E+02  1.300000000000E+02  1.300000000000E+02
  5.700000000000E+02  5.700000000000E+02  5.700000000000E+02  5.700000000000E+02  5.700000000000E+02  5.700000000000E+02  5.700000000000E+02
  1.034400000000E+01  3.103200000000E+01  5.172000000000E+01  7.240800000000E+01  9.309600000000E+01  1.137840000000E+02  1.344720000000E+02
           1           2
           2           3
           3           4
           4           5
           5           6
           6           7
 ZONE t = "whisker load points"
 DATAPACKING=block
 zonetype =FELINESEG
 N=           7 , E=           6
 strandid =            3
 solutiontime =   12.500000000000000     
 VARSHARELIST = ([1]=1,[2]=1,[3]=1)
 CONNECTIVITYSHAREZONE =           1
 -5.648607706172E-08 -5.181174964220E-07 -1.328791516680E-06 -2.381951184502E-06 -3.587615723550E-06 -4.874468691570E-06 -6.192298207458E-06
 -6.296146401984E-07 -5.192670655986E-06 -1.317135225746E-05 -2.342176450698E-05 -3.503523675188E-05 -4.733947238666E-05 -5.989498125083E-05
 -2.608212510016E-14 -5.704775904512E-13 -2.139654335496E-12 -4.710053093560E-12 -8.006007451141E-12 -1.170689127145E-11 -1.556194464431E-11
 -1.610156116485E-04 -1.609926895831E-04 -1.609537359442E-04 -1.609055826277E-04 -1.608532796276E-04 -1.607997607279E-04 -1.607461992832E-04
 -4.238111587961E-04 -4.236442261140E-04 -4.233575868825E-04 -4.229987543548E-04 -4.226040675767E-04 -4.221960566048E-04 -4.217853168561E-04
  0.000000000000E+00  0.000000000000E+00  0.000000000000E+00  0.000000000000E+00  0.000000000000E+00  0.000000000000E+00  0.000000000000E+00
 -2.348667407086E-03 -2.348667469404E-03 -2.348667578325E-03 -2.348667718112E-03 -2.348667876328E-03 -2.348668043836E-03 -2.348668214704E-03
 -1.931013611150E-03 -1.931013676011E-03 -1.931013789476E-03 -1.931013935420E-03 -1.931014100957E-03 -1.931014276481E-03 -1.931014455659E-03
  0.000000000000E+00  0.000000000000E+00  0.000000000000E+00  0.000000000000E+00  0.000000000000E+00  0.000000000000E+00  0.000000000000E+00
  3.942498589646E+01  3.941616857786E+01  3.940093108050E+01  3.938170670129E+01  3.936039665760E+01  3.933822464126E+01  3.931581213432E+01
 ZONE t = "whisker load points"
 DATAPACKING=block
 zonetype =FELINESEG
 N=           7 , E=           6
 strandid =            3
 solutiontime =   25.000000000000000     
 VARSHARELIST = ([1]=1,[2]=1,[3]=1)
 CONNECTIVITYSHAREZONE =           1
 -1.977237937678E-04 -1.820570156174E-03 -4.666522599460E-03 -8.359903960240E-03 -1.258488567388E-02 -1.709202671719E-02 -2.170629401413E-02
 -2.651721469515E-05 -2.160902928268E-04 -5.415385323875E-04 -9.524186411132E-04 -1.411099696358E-03 -1.891998979121E-03 -2.380137676558E-03
 -3.304444699546E-09 -7.238311525790E-08 -2.731395890384E-07 -6.078269243863E-07 -1.044216654482E-06 -1.540068024425E-06 -2.059469885619E-06
 -6.117225684945E-01 -6.111106296367E-01 -6.099890906129E-01 -6.084658823847E-01 -6.066534510552E-01 -6.046664314832E-01 -6.026063586726E-01
 -2.617439576601E-02 -2.588528691375E-02 -2.532265419043E-02 -2.452308094077E-02 -2.354149070140E-02 -2.244582643889E-02 -2.130147290976E-02
  0.000000000000E+00 -6.812846168277E-05 -9.839061722140E-05 -1.182019770275E-04 -1.294842010862E-04 -1.343897916259E-04 -1.353062357304E-04
 -2.404751363221E-03 -2.404734330331E-03 -2.404704351204E-03 -2.404665266593E-03 -2.404620379659E-03 -2.404572363536E-03 -2.404523140131E-03
 -1.924963879891E-03 -1.924991535356E-03 -1.925039947905E-03 -1.925102634884E-03 -1.925174205321E-03 -1.925250452410E-03 -1.925328460801E-03
  0.000000000000E+00  0.000000000000E+00  0.000000000000E+00  0.000000000000E+00  0.000000000000E+00  0.000000000000E+00  0.000000000000E+00
  5.267403479970E-01  5.214205365109E-01  5.109801017924E-01  4.960220224724E-01  4.775158514402E-01  4.567075206895E-01  4.348248132655E-01
 ZONE t = "whisker load points"
 DATAPACKING=block
 zonetype =FELINESEG
 N=           7 , E=           6
 strandid =            3
 solutiontime =   37.500000000000000     
 VARSHARELIST = ([1]=1,[2]=1,[3]=1)
 CONNECTIVITYSHAREZONE =           1
 -8.469604451756E-05 -7.562923413658E-04 -1.891148008331E-03 -3.316236413159E-03 -4.904589580423E-03 -6.569690704071E-03 -8.259558706144E-03
 -5.732458953989E-05 -4.783178847799E-04 -1.224074315617E-03 -2.193481550490E-03 -3.302009285483E-03 -4.483732862728E-03 -5.693248814784E-03
 -7.970424488361E-10 -1.698288951643E-08 -6.210045336440E-08 -1.344005227473E-07 -2.257434387491E-07 -3.273715529926E-07 -4.327292349560E-07
 -6.121218107422E-01 -6.123921745435E-01 -6.128913675177E-01 -6.135699569174E-01 -6.143744444189E-01 -6.152526756926E-01 -6.161618409009E-01
 -2.589324358635E-02 -2.582390134216E-02 -2.568630833397E-02 -2.548354674928E-02 -2.522328845792E-02 -2.492134531250E-02 -2.459849447519E-02
  0.000000000000E+00  0.000000000000E+00  0.000000000000E+00  0.000000000000E+00  0.000000000000E+00  0.000000000000E+00 -5.187527858777E-05
 -2.459881565563E-03 -2.459880040110E-03 -2.459878012257E-03 -2.459875992581E-03 -2.459874190478E-03 -2.459872615435E-03 -2.459871180413E-03
 -1.903819024980E-03 -1.903834908589E-03 -1.903862170694E-03 -1.903896809643E-03 -1.903935762036E-03 -1.903976838127E-03 -1.904018651029E-03
  0.000000000000E+00  0.000000000000E+00  0.000000000000E+00  0.000000000000E+00  0.000000000000E+00  0.000000000000E+00  0.000000000000E+00
  5.207161053578E-01  5.190852261049E-01  5.158850440243E-01  5.112266783014E-01  5.053179084180E-01  4.985276792326E-01  4.913134866492E-01
 ZONE t = "whisker load points"
 DATAPACKING=block
 zonetype =FELINESEG
 N=           7 , E=           6
 strandid =            3
 solutiontime =   50.000000000000000     
 VARSHARELIST = ([1]=1,[2]=1,[3]=1)
 CONNECTIVITYSHAREZONE =           1
 -1.833245500387E-04 -1.683200740923E-03 -4.304328983491E-03 -7.695289391550E-03 -1.156464544798E-02 -1.568547244988E-02 -1.990071668889E-02
 -4.396526520112E-05 -3.648004510923E-04 -9.291439472364E-04 -1.658258416683E-03 -2.488115291253E-03 -3.370061912267E-03 -4.271357897907E-03
 -2.946947142965E-09 -6.386007269307E-08 -2.399967253544E-07 -5.323051993966E-07 -9.120109279677E-07 -1.342337263674E-06 -1.792510480180E-06
 -6.123735802734E-01 -6.123069217483E-01 -6.121947961464E-01 -6.120580075584E-01 -6.119128237919E-01 -6.117681163413E-01 -6.116256943532E-01
 -2.561968035512E-02 -2.586300728028E-02 -2.630342101390E-02 -2.688658895006E-02 -2.756209857011E-02 -2.828710438922E-02 -2.903083523021E-02
  0.000000000000E+00 -6.324861621557E-05 -9.121662617388E-05 -1.095659187050E-04 -1.201549956652E-04 -1.249892676729E-04 -1.262409868360E-04
 -2.514422493739E-03 -2.514409496993E-03 -2.514386844443E-03 -2.514357522524E-03 -2.514324028616E-03 -2.514288326940E-03 -2.514251792168E-03
 -1.882332963770E-03 -1.882361464410E-03 -1.882411315869E-03 -1.882475797261E-03 -1.882549350427E-03 -1.882627662214E-03 -1.882707758840E-03
  0.000000000000E+00  0.000000000000E+00  0.000000000000E+00  0.000000000000E+00  0.000000000000E+00  0.000000000000E+00  0.000000000000E+00
  5.149780241391E-01  5.199474600167E-01  5.289383788896E-01  5.408403724174E-01  5.546245363215E-01  5.694191396684E-01  5.846011659931E-01
 ZONE t = "whisker load points"
 DATAPACKING=block
 zonetype =FELINESEG
 N=           7 , E=           6
 strandid =            3
 solutiontime =   62.499999999999993     
 VARSHARELIST = ([1]=1,[2]=1,[3]=1)
 CONNECTIVITYSHAREZONE =           1
 -1.024678941852E-04 -9.225147857291E-04 -2.321725167577E-03 -4.093547506855E-03 -6.081076938543E-03 -8.173414561856E-03 -1.030131866771E-02
 -2.371758554924E-05 -1.927282466414E-04 -4.820260865494E-04 -8.466414734994E-04 -1.253463504502E-03 -1.680042510365E-03 -2.113076035385E-03
 -8.991795717955E-10 -1.904955528328E-08 -6.925233684230E-08 -1.491763810509E-07 -2.495742256480E-07 -3.607669594281E-07 -4.757462267405E-07
 -6.126657116926E-01 -6.126166807689E-01 -6.125308355777E-01 -6.124195655854E-01 -6.122923599109E-01 -6.121567376899E-01 -6.120179602564E-01
 -2.526605934410E-02 -2.531455517502E-02 -2.540562306930E-02 -2.553103661999E-02 -2.568198294717E-02 -2.584911662465E-02 -2.602360736747E-02
  0.000000000000E+00  0.000000000000E+00  0.000000000000E+00  0.000000000000E+00 -6.131892044696E-05 -6.322482135169E-05 -6.363634890533E-05
 -2.569061656045E-03 -2.569054529392E-03 -2.569042384704E-03 -2.569026976576E-03 -2.569009655594E-03 -2.568991392419E-03 -2.568972805149E-03
 -1.859935618154E-03 -1.859951382053E-03 -1.859978291035E-03 -1.860012345684E-03 -1.860050520389E-03 -1.860090688013E-03 -1.860131528934E-03
  0.000000000000E+00  0.000000000000E+00  0.000000000000E+00  0.000000000000E+00  0.000000000000E+00  0.000000000000E+00  0.000000000000E+00
  5.075962326901E-01  5.086155832019E-01  5.105250458654E-01  5.131497768010E-01  5.163046128269E-01  5.197950292853E-01  5.234385415886E-01
 ZONE t = "whisker load points"
 DATAPACKING=block
 zonetype =FELINESEG
 N=           7 , E=           6
 strandid =            3
 solutiontime =   75.000000000000000     
 VARSHARELIST = ([1]=1,[2]=1,[3]=1)
 CONNECTIVITYSHAREZONE =           1
 -1.661635238335E-04 -1.521718105285E-03 -3.883317064874E-03 -6.930149140614E-03 -1.039925179613E-02 -1.408836420318E-02 -1.785921262332E-02
 -2.979340866202E-05 -2.459831323604E-04 -6.240449549244E-04 -1.110220188432E-03 -1.661786177717E-03 -2.246878013498E-03 -2.844343520292E-03
 -2.355373129955E-09 -5.105860909124E-08 -1.911052813559E-07 -4.222815042170E-07 -7.213196281339E-07 -1.059273907101E-06 -1.412319722987E-06
 -6.115681872511E-01 -6.116782270797E-01 -6.118755968527E-01 -6.121372743665E-01 -6.124417439175E-01 -6.127702487470E-01 -6.131084698495E-01
 -2.157721644026E-02 -2.141299331681E-02 -2.112356607068E-02 -2.075098666594E-02 -2.032994182785E-02 -1.988558529921E-02 -1.943320106921E-02
  0.000000000000E+00  0.000000000000E+00 -8.172846032179E-05 -9.795735505246E-05 -1.072679071982E-04 -1.115063547882E-04 -1.126220715889E-04
 -2.632834760901E-03 -2.632824374141E-03 -2.632806304698E-03 -2.632782962669E-03 -2.632756348199E-03 -2.632728018047E-03 -2.632699048126E-03
 -1.894826012758E-03 -1.894853210902E-03 -1.894900609807E-03 -1.894961745298E-03 -1.895031333135E-03 -1.895105319455E-03 -1.895180939563E-03
  0.000000000000E+00  0.000000000000E+00  0.000000000000E+00  0.000000000000E+00  0.000000000000E+00  0.000000000000E+00  0.000000000000E+00
  4.339961474467E-01  4.306032388471E-01  4.246246316489E-01  4.169297289315E-01  4.082371226404E-01  3.990692936688E-01  3.897449707115E-01
 ZONE t = "whisker load points"
 DATAPACKING=block
 zonetype =FELINESEG
 N=           7 , E=           6
 strandid =            3
 solutiontime =   87.500000000000014     
 VARSHARELIST = ([1]=1,[2]=1,[3]=1)
 CONNECTIVITYSHAREZONE =           1
 -1.176044286145E-04 -1.065041302538E-03 -2.693498455641E-03 -4.769463203571E-03 -7.110864952680E-03 -9.584961784307E-03 -1.210586751989E-02
 -3.651974370033E-05 -3.035119866762E-04 -7.743753524324E-04 -1.384472544109E-03 -2.080752488697E-03 -2.822274550890E-03 -3.580917882190E-03
 -1.222295967438E-09 -2.622165185032E-08 -9.654680761794E-08 -2.102727994516E-07 -3.549460081623E-07 -5.166160904682E-07 -6.845614779892E-07
 -6.117560826124E-01 -6.115915661134E-01 -6.112960210915E-01 -6.109046763301E-01 -6.104502981810E-01 -6.099610188450E-01 -6.094579659383E-01
 -2.114760337147E-02 -2.120314112829E-02 -2.130663534520E-02 -2.144940197896E-02 -2.162173917338E-02 -2.181276829844E-02 -2.201203479427E-02
  0.000000000000E+00  0.000000000000E+00  0.000000000000E+00 -6.662033525649E-05 -7.230304349704E-05 -7.472605611789E-05 -7.525382260683E-05
 -2.681476251587E-03 -2.681471272140E-03 -2.681462936187E-03 -2.681452492465E-03 -2.681440865238E-03 -2.681428686300E-03 -2.681416334141E-03
 -1.868043404238E-03 -1.868063852146E-03 -1.868099122864E-03 -1.868144189044E-03 -1.868195103147E-03 -1.868248963514E-03 -1.868303875689E-03
  0.000000000000E+00  0.000000000000E+00  0.000000000000E+00  0.000000000000E+00  0.000000000000E+00  0.000000000000E+00  0.000000000000E+00
  4.251928994578E-01  4.264286538198E-01  4.287255525794E-01  4.318862554667E-01  4.356943114939E-01  4.399118975881E-01  4.443135252332E-01
 ZONE t = "whisker load points"
 DATAPACKING=block
 zonetype =FELINESEG
 N=           7 , E=           6
 strandid =            3
 solutiontime =   100.00000000000000     
 VARSHARELIST = ([1]=1,[2]=1,[3]=1)
 CONNECTIVITYSHAREZONE =           1
 -1.531261781610E-04 -1.399143251443E-03 -3.564066207741E-03 -6.350591161539E-03 -9.517488162394E-03 -1.288111381819E-02 -1.631717514318E-02
 -3.086225730030E-05 -2.554886447290E-04 -6.496625594329E-04 -1.158127757546E-03 -1.736384021107E-03 -2.350764436260E-03 -2.978598219198E-03
 -2.005132768458E-09 -4.337572829671E-08 -1.617768929376E-07 -3.563652020662E-07 -6.071980497946E-07 -8.900119409769E-07 -1.185112240239E-06
 -6.120068335982E-01 -6.121933968083E-01 -6.125289802185E-01 -6.129738722335E-01 -6.134911516139E-01 -6.140489674269E-01 -6.146232128781E-01
 -2.067611704236E-02 -2.069157211477E-02 -2.072145838356E-02 -2.076278003495E-02 -2.081247637326E-02 -2.086747739173E-02 -2.092496700399E-02
  0.000000000000E+00  0.000000000000E+00 -7.496417114114E-05 -8.969726867207E-05 -9.811856791701E-05 -1.019549950823E-04 -1.029928144563E-04
 -2.728481148837E-03 -2.728472586304E-03 -2.728457783013E-03 -2.728438750071E-03 -2.728417125627E-03 -2.728394160809E-03 -2.728370704643E-03
 -1.840365739689E-03 -1.840391808216E-03 -1.840437141848E-03 -1.840495503695E-03 -1.840561836661E-03 -1.840632293025E-03 -1.840704269743E-03
  0.000000000000E+00  0.000000000000E+00  0.000000000000E+00  0.000000000000E+00  0.000000000000E+00  0.000000000000E+00  0.000000000000E+00
  4.155089953581E-01  4.156935086928E-01  4.160671737287E-01  4.165961544743E-01  4.172434650479E-01  4.179686318445E-01  4.187312337269E-01
 ZONE t = "whisker load points"
 DATAPACKING=block
 zonetype =FELINESEG
 N=           7 , E=           6
 strandid =            3
 solutiontime =   112.50000000000001     
 VARSHARELIST = ([1]=1,[2]=1,[3]=1)
 CONNECTIVITYSHAREZONE =           1
 -1.285484889736E-04 -1.167954636866E-03 -2.961619855344E-03 -5.256372437219E-03 -7.851927218355E-03 -1.059987915986E-02 -1.340252760806E-02
 -2.513791667543E-05 -2.068668712361E-04 -5.233126100590E-04 -9.286698389832E-04 -1.387093160650E-03 -1.872308637844E-03 -2.367203930151E-03
 -1.399840924910E-09 -3.008548721769E-08 -1.111362342984E-07 -2.427746338747E-07 -4.108540586567E-07 -5.991501426908E-07 -7.949976095570E-07
 -6.121719130578E-01 -6.120054639586E-01 -6.117064775071E-01 -6.113106083842E-01 -6.108509003877E-01 -6.103557586411E-01 -6.098465820422E-01
 -2.019662533373E-02 -2.025725059761E-02 -2.036562273701E-02 -2.050826885498E-02 -2.067299890750E-02 -2.084965378157E-02 -2.103085495860E-02
  0.000000000000E+00  0.000000000000E+00 -6.182566189967E-05 -7.347096111060E-05 -7.991956733447E-05 -8.270731828411E-05 -8.333018704993E-05
 -2.775640072976E-03 -2.775633000920E-03 -2.775620851926E-03 -2.775605318344E-03 -2.775587746671E-03 -2.775569140274E-03 -2.775550163376E-03
 -1.811545314894E-03 -1.811567297292E-03 -1.811605260756E-03 -1.811653835464E-03 -1.811708777261E-03 -1.811766944209E-03 -1.811826269681E-03
  0.000000000000E+00  0.000000000000E+00  0.000000000000E+00  0.000000000000E+00  0.000000000000E+00  0.000000000000E+00  0.000000000000E+00
  4.057302191974E-01  4.070633711001E-01  4.094493414661E-01  4.125951739116E-01  4.162350562860E-01  4.201462589041E-01  4.241658861745E-01
 ZONE t = "whisker load points"
 DATAPACKING=block
 zonetype =FELINESEG
 N=           7 , E=           6
 strandid =            3
 solutiontime =   125.00000000000000     
 VARSHARELIST = ([1]=1,[2]=1,[3]=1)
 CONNECTIVITYSHAREZONE =           1
 -1.446394524765E-04 -1.319278971892E-03 -3.355876246813E-03 -5.972337891119E-03 -8.941577516303E-03 -1.209215052124E-02 -1.530898773886E-02
 -2.464269351806E-05 -2.042447274660E-04 -5.199207435267E-04 -9.277657429132E-04 -1.392218912083E-03 -1.886175386629E-03 -2.391221079089E-03
 -1.769969864084E-09 -3.817713972801E-08 -1.419565531959E-07 -3.119034468942E-07 -5.303557923773E-07 -7.761950217021E-07 -1.032472372018E-06
 -6.124681649870E-01 -6.126120301906E-01 -6.128715327467E-01 -6.132167497502E-01 -6.136193494085E-01 -6.140543891344E-01 -6.145026577773E-01
 -1.580057520641E-02 -1.572194567851E-02 -1.558505257654E-02 -1.541000165340E-02 -1.521293629083E-02 -1.500522750100E-02 -1.479375270964E-02
  0.000000000000E+00  0.000000000000E+00 -7.034035563458E-05 -8.400429261319E-05 -9.175459758739E-05 -9.524725660014E-05 -9.616403181251E-05
 -2.841657575919E-03 -2.841651551743E-03 -2.841641196186E-03 -2.841627939408E-03 -2.841612928175E-03 -2.841597022962E-03 -2.841580796737E-03
 -1.843819261333E-03 -1.843845274611E-03 -1.843890412650E-03 -1.843948422093E-03 -1.844014267144E-03 -1.844084143701E-03 -1.844155496651E-03
  0.000000000000E+00  0.000000000000E+00  0.000000000000E+00  0.000000000000E+00  0.000000000000E+00  0.000000000000E+00  0.000000000000E+00
  3.170273218356E-01  3.153711932475E-01  3.124852495573E-01  3.087918715810E-01  3.046323063259E-01  3.002490590501E-01  2.957904681830E-01
 ZONE t = "whisker load points"
 DATAPACKING=block
 zonetype =FELINESEG
 N=           7 , E=           6
 strandid =            3
 solutiontime =   137.50000000000003     
 VARSHARELIST = ([1]=1,[2]=1,[3]=1)
 CONNECTIVITYSHAREZONE =           1
 -1.351649100861E-04 -1.230153978212E-03 -3.123624389398E-03 -5.550497490648E-03 -8.299475015472E-03 -1.121270059187E-02 -1.418535910811E-02
 -2.155263947973E-05 -1.781327713616E-04 -4.523412870508E-04 -8.054368788916E-04 -1.206466103561E-03 -1.632183231466E-03 -2.067032101816E-03
 -1.537494414545E-09 -3.306414087190E-08 -1.224753561168E-07 -2.682112954707E-07 -4.548444022831E-07 -6.643470735242E-07 -8.824707316318E-07
 -6.125936126086E-01 -6.124765571364E-01 -6.122664897172E-01 -6.119886767029E-01 -6.116664878519E-01 -6.113198459937E-01 -6.109635779036E-01
 -1.527759390526E-02 -1.537204304020E-02 -1.554271815756E-02 -1.577029111175E-02 -1.603669085313E-02 -1.632557937984E-02 -1.662374920711E-02
  0.000000000000E+00  0.000000000000E+00 -6.524061640667E-05 -7.767566219592E-05 -8.461840427553E-05 -8.765710824466E-05 -8.836543224955E-05
 -2.885329673186E-03 -2.885324155063E-03 -2.885314685582E-03 -2.885302582574E-03 -2.885288895037E-03 -2.885274404202E-03 -2.885259626336E-03
 -1.814450661571E-03 -1.814475166803E-03 -1.814517569743E-03 -1.814571931597E-03 -1.814633517840E-03 -1.814698790373E-03 -1.814765398898E-03
  0.000000000000E+00  0.000000000000E+00  0.000000000000E+00  0.000000000000E+00  0.000000000000E+00  0.000000000000E+00  0.000000000000E+00
  3.064439580360E-01  3.084024771121E-01  3.119429625343E-01  3.166666543397E-01  3.222005987919E-01  3.282074024788E-01  3.344141477459E-01
 ZONE t = "whisker load points"
 DATAPACKING=block
 zonetype =FELINESEG
 N=           7 , E=           6
 strandid =            3
 solutiontime =   150.00000000000000     
 VARSHARELIST = ([1]=1,[2]=1,[3]=1)
 CONNECTIVITYSHAREZONE =           1
 -1.399546211985E-04 -1.275193524517E-03 -3.240960591952E-03 -5.763565689395E-03 -8.623733190571E-03 -1.165675020041E-02 -1.475263311988E-02
 -2.049569640041E-05 -1.693121470409E-04 -4.297446888260E-04 -7.648698891002E-04 -1.145258125501E-03 -1.548892739382E-03 -1.961117258689E-03
 -1.645439519838E-09 -3.543150496918E-08 -1.314847792815E-07 -2.884050970115E-07 -4.897289090116E-07 -7.160008239126E-07 -9.517275698934E-07
 -6.127723336963E-01 -6.128713965481E-01 -6.130492711018E-01 -6.132847661061E-01 -6.135582904299E-01 -6.138530483276E-01 -6.141563703356E-01
 -1.470002094408E-02 -1.464181847537E-02 -1.453660173191E-02 -1.439644901138E-02 -1.423297448050E-02 -1.405646906639E-02 -1.387474197725E-02
  0.000000000000E+00  0.000000000000E+00 -6.782153135140E-05 -8.089837195986E-05 -8.827732063058E-05 -9.157674045685E-05 -9.242208311769E-05
 -2.928959085903E-03 -2.928953346380E-03 -2.928943466626E-03 -2.928930807509E-03 -2.928916462652E-03 -2.928901255555E-03 -2.928885737122E-03
 -1.783981521586E-03 -1.784007093417E-03 -1.784051395416E-03 -1.784108254530E-03 -1.784172726216E-03 -1.784241096950E-03 -1.784310887405E-03
  0.000000000000E+00  0.000000000000E+00  0.000000000000E+00  0.000000000000E+00  0.000000000000E+00  0.000000000000E+00  0.000000000000E+00
  2.947436977969E-01  2.935262394533E-01  2.913269992123E-01  2.884003068925E-01  2.849901626585E-01  2.813120812019E-01  2.775291852025E-01
 ZONE t = "whisker load points"
 DATAPACKING=block
 zonetype =FELINESEG
 N=           7 , E=           6
 strandid =            3
 solutiontime =   162.50000000000000     
 VARSHARELIST = ([1]=1,[2]=1,[3]=1)
 CONNECTIVITYSHAREZONE =           1
 -1.385151504893E-04 -1.261645339854E-03 -3.205641716982E-03 -5.699397429214E-03 -8.526040595140E-03 -1.152293141233E-02 -1.458165289975E-02
 -2.070010776609E-05 -1.712204707798E-04 -4.350472162472E-04 -7.749851615075E-04 -1.161204675336E-03 -1.571261419565E-03 -1.990140672215E-03
 -1.611809333535E-09 -3.470335412624E-08 -1.287184642172E-07 -2.822098541627E-07 -4.790322462877E-07 -7.001674690217E-07 -9.305032806442E-07
 -6.129049492936E-01 -6.128265737993E-01 -6.126855331826E-01 -6.124984819786E-01 -6.122809340719E-01 -6.120463323664E-01 -6.118048964617E-01
 -1.413659865572E-02 -1.417930475480E-02 -1.425490183744E-02 -1.435362428035E-02 -1.446687696887E-02 -1.458775298288E-02 -1.471145357036E-02
  0.000000000000E+00  0.000000000000E+00 -6.702026582753E-05 -7.986566009435E-05 -8.706523282705E-05 -9.023486240639E-05 -9.098866125265E-05
 -2.973228242960E-03 -2.973222851016E-03 -2.973213589705E-03 -2.973201741459E-03 -2.973188330554E-03 -2.973174123596E-03 -2.973159630522E-03
 -1.752491335622E-03 -1.752516878675E-03 -1.752561116116E-03 -1.752617875895E-03 -1.752682220072E-03 -1.752750444878E-03 -1.752820080882E-03
  0.000000000000E+00  0.000000000000E+00  0.000000000000E+00  0.000000000000E+00  0.000000000000E+00  0.000000000000E+00  0.000000000000E+00
  2.833582290671E-01  2.842527356899E-01  2.858378444094E-01  2.879103483806E-01  2.902909460258E-01  2.928349149453E-01  2.954411169381E-01
 ZONE t = "whisker load points"
 DATAPACKING=block
 zonetype =FELINESEG
 N=           7 , E=           6
 strandid =            3
 solutiontime =   175.00000000000003     
 VARSHARELIST = ([1]=1,[2]=1,[3]=1)
 CONNECTIVITYSHAREZONE =           1
 -1.398079693298E-04 -1.273420276453E-03 -3.235562627723E-03 -5.752602336864E-03 -8.605644342569E-03 -1.163052663152E-02 -1.471781302375E-02
 -1.632918245044E-05 -1.357653770971E-04 -3.465473929954E-04 -6.198821289143E-04 -9.320834875058E-04 -1.264784802833E-03 -1.605285263474E-03
 -1.631862812212E-09 -3.511860666944E-08 -1.302555451255E-07 -2.855922479772E-07 -4.847999903476E-07 -7.086308998719E-07 -9.417814810921E-07
 -6.189157551284E-01 -6.189816534624E-01 -6.191014685198E-01 -6.192618639093E-01 -6.194498203628E-01 -6.196535430504E-01 -6.198637465340E-01
 -9.314709428159E-03 -9.331578642865E-03 -9.368090503565E-03 -9.424264664830E-03 -9.497280188291E-03 -9.581765467924E-03 -9.671623109115E-03
  0.000000000000E+00  0.000000000000E+00 -6.824938253336E-05 -8.137589213790E-05 -8.876947729864E-05 -9.206573281167E-05 -9.290161784663E-05
 -3.047104812699E-03 -3.047101166496E-03 -3.047094948295E-03 -3.047087038625E-03 -3.047078126894E-03 -3.047068716365E-03 -3.047059132123E-03
 -1.777841691485E-03 -1.777868375365E-03 -1.777914585178E-03 -1.777973880484E-03 -1.778041105458E-03 -1.778112389959E-03 -1.778185151357E-03
  0.000000000000E+00  0.000000000000E+00  0.000000000000E+00  0.000000000000E+00  0.000000000000E+00  0.000000000000E+00  0.000000000000E+00
  1.847398108135E-01  1.850551691188E-01  1.857443716597E-01  1.868114432233E-01  1.882038764417E-01  1.898182490085E-01  1.915361649971E-01
 ZONE t = "whisker load points"
 DATAPACKING=block
 zonetype =FELINESEG
 N=           7 , E=           6
 strandid =            3
 solutiontime =   187.50000000000003     
 VARSHARELIST = ([1]=1,[2]=1,[3]=1)
 CONNECTIVITYSHAREZONE =           1
 -1.406722304796E-04 -1.281532281115E-03 -3.256668146957E-03 -5.790889414054E-03 -8.663871008137E-03 -1.171022896500E-02 -1.481960880900E-02
 -9.086362382885E-06 -7.435139565846E-05 -1.871980092646E-04 -3.308863820718E-04 -4.926656848174E-04 -6.634233645652E-04 -8.373505277594E-04
 -1.639265652419E-09 -3.529113897182E-08 -1.309046404107E-07 -2.870375532496E-07 -4.872870098378E-07 -7.123044120337E-07 -9.466989949945E-07
 -6.190016684584E-01 -6.189710555475E-01 -6.189165157592E-01 -6.188449868421E-01 -6.187627411175E-01 -6.186748610768E-01 -6.185848685262E-01
 -8.648869418337E-03 -8.707747703173E-03 -8.814743216266E-03 -8.958332154639E-03 -9.127627160515E-03 -9.312329456353E-03 -9.503645161652E-03
  0.000000000000E+00  0.000000000000E+00 -6.863146314396E-05 -8.181462161185E-05 -8.922035130751E-05 -9.249683463326E-05 -9.329432567587E-05
 -3.089061875558E-03 -3.089057330739E-03 -3.089049458747E-03 -3.089039332307E-03 -3.089027825432E-03 -3.089015604923E-03 -3.089003122096E-03
 -1.742392805162E-03 -1.742419691245E-03 -1.742466237805E-03 -1.742525954536E-03 -1.742593648590E-03 -1.742665424417E-03 -1.742738684061E-03
  0.000000000000E+00  0.000000000000E+00  0.000000000000E+00  0.000000000000E+00  0.000000000000E+00  0.000000000000E+00  0.000000000000E+00
  1.714911369095E-01  1.726688404321E-01  1.748090539672E-01  1.776814725882E-01  1.810685462878E-01  1.847645666955E-01  1.885939603826E-01
 ZONE t = "whisker load points"
 DATAPACKING=block
 zonetype =FELINESEG
 N=           7 , E=           6
 strandid =            3
 solutiontime =   200.00000000000000     
 VARSHARELIST = ([1]=1,[2]=1,[3]=1)
 CONNECTIVITYSHAREZONE =           1
 -1.390160860860E-04 -1.265940971448E-03 -3.216008301377E-03 -5.716985930156E-03 -8.551306625654E-03 -1.155597295284E-02 -1.462244130973E-02
 -1.008054550501E-05 -8.304440252207E-05 -2.102985522500E-04 -3.735741955537E-04 -5.584980564344E-04 -7.544510037418E-04 -9.544447259519E-04
 -1.602567569758E-09 -3.446677340121E-08 -1.277601800094E-07 -2.799824654290E-07 -4.750907244864E-07 -6.942351464055E-07 -9.224617877267E-07
 -6.191008106531E-01 -6.191189365225E-01 -6.191512689036E-01 -6.191939977144E-01 -6.192436332010E-01 -6.192971856341E-01 -6.193523450236E-01
 -7.950588917445E-03 -7.895961429687E-03 -7.796607680258E-03 -7.664080960777E-03 -7.509479250274E-03 -7.342601576875E-03 -7.170839775222E-03
  0.000000000000E+00  0.000000000000E+00 -6.777221833908E-05 -8.077161556544E-05 -8.807358890272E-05 -9.131007917622E-05 -9.210966580017E-05
 -3.130924057710E-03 -3.130920024698E-03 -3.130913068840E-03 -3.130904148928E-03 -3.130894036604E-03 -3.130883313561E-03 -3.130872369201E-03
 -1.705913640902E-03 -1.705940433415E-03 -1.705986801414E-03 -1.706046269672E-03 -1.706113664328E-03 -1.706185109905E-03 -1.706258025996E-03
  0.000000000000E+00  0.000000000000E+00  0.000000000000E+00  0.000000000000E+00  0.000000000000E+00  0.000000000000E+00  0.000000000000E+00
  1.576017984573E-01  1.565129154720E-01  1.545328864919E-01  1.518922700148E-01  1.488124648336E-01  1.454888502249E-01  1.420687464903E-01
 ZONE t = "whisker load points"
 DATAPACKING=block
 zonetype =FELINESEG
 N=           7 , E=           6
 strandid =            3
 solutiontime =   212.50000000000003     
 VARSHARELIST = ([1]=1,[2]=1,[3]=1)
 CONNECTIVITYSHAREZONE =           1
 -1.410535000409E-04 -1.285096892230E-03 -3.265906900022E-03 -5.807585759848E-03 -8.689174016764E-03 -1.174476253866E-02 -1.486361603821E-02
 -1.292909232861E-05 -1.074971057136E-04 -2.743559172289E-04 -4.906327333689E-04 -7.375150441818E-04 -1.000466455715E-03 -1.269500445666E-03
 -1.654022417831E-09 -3.561662352901E-08 -1.321505024050E-07 -2.898374501171E-07 -4.921297739827E-07 -7.194794023000E-07 -9.563226496300E-07
 -6.191914704546E-01 -6.191724164943E-01 -6.191378967259E-01 -6.190918556469E-01 -6.190380367304E-01 -6.189797789642E-01 -6.189196984125E-01
 -7.309946735007E-03 -7.320863540342E-03 -7.339304423083E-03 -7.362329551320E-03 -7.387680288961E-03 -7.413891088444E-03 -7.440252461684E-03
  0.000000000000E+00  0.000000000000E+00 -6.886858390507E-05 -8.210616442853E-05 -8.954620011861E-05 -9.284078735852E-05 -9.364561968048E-05
 -3.171589662501E-03 -3.171586300110E-03 -3.171580552082E-03 -3.171573227310E-03 -3.171564961943E-03 -3.171556223991E-03 -3.171547319171E-03
 -1.671660755154E-03 -1.671688244921E-03 -1.671735856432E-03 -1.671796960292E-03 -1.671866244771E-03 -1.671939719453E-03 -1.672014719509E-03
  0.000000000000E+00  0.000000000000E+00  0.000000000000E+00  0.000000000000E+00  0.000000000000E+00  0.000000000000E+00  0.000000000000E+00
  1.448657757599E-01  1.450868563495E-01  1.454608972612E-01  1.459286727367E-01  1.464445194400E-01  1.469785864177E-01  1.475161822950E-01
 ZONE t = "whisker load points"
 DATAPACKING=block
 zonetype =FELINESEG
 N=           7 , E=           6
 strandid =            3
 solutiontime =   225.00000000000003     
 VARSHARELIST = ([1]=1,[2]=1,[3]=1)
 CONNECTIVITYSHAREZONE =           1
 -1.388282849590E-04 -1.264210475881E-03 -3.211569094474E-03 -5.709026339868E-03 -8.539313891165E-03 -1.153967213284E-02 -1.460172616289E-02
 -6.052728343870E-06 -5.091403590998E-05 -1.312925531911E-04 -2.369753231852E-04 -3.590439715715E-04 -4.901225787144E-04 -6.247740929037E-04
 -1.593870785250E-09 -3.428290816098E-08 -1.270813941161E-07 -2.785032330143E-07 -4.725940791417E-07 -6.906024360069E-07 -9.176489736904E-07
 -6.185185206854E-01 -6.185557923335E-01 -6.186249474913E-01 -6.187192014408E-01 -6.188312989830E-01 -6.189540313923E-01 -6.190812890747E-01
 -1.919148416151E-03 -1.993964469256E-03 -2.135506441165E-03 -2.331498109262E-03 -2.567508847400E-03 -2.828012588399E-03 -3.099156896649E-03