variables="x","y","z","u","v","w","load_fx","load_fy","load_fz","flow_u","flow_v","flow_w","AOA"
 ZONE t = "whisker load points"
 DATAPACKING=block
 zonetype =FELINESEG
 N=           7 , E=           6
 strandid =            3
 solutiontime =   0.0000000000000000     
PASSIVEVARLIST=[4,5,6,7,8,9,10,11,12,13,]
  1.300000000000E+02  1.300000000000E+02  1.300000000000E+02  1.300000000000E+02  1.300000000000E+02  1.300000000000E+02  1.300000000000E+02
  5.500000000000E+02  5.500000000000E+02  5.500000000000E+02  5.500000000000E+02  5.500000000000E+02  5.500000000000E+02  5.500000000000E+02
  1.034400000000E+01  3.103200000000E+01  5.172000000000E+01  7.240800000000E+01  9.309600000000E+01  1.137840000000E+02  1.344720000000E+02
           1           2
           2           3
           3           4
           4           5
           5           6
           6           7
 ZONE t = "whisker load points"
 DATAPACKING=block
 zonetype =FELINESEG
 N=           7 , E=           6
 strandid =            3
 solutiontime =   12.500000000000000     
 VARSHARELIST = ([1]=1,[2]=1,[3]=1)
 CONNECTIVITYSHAREZONE =           1
 -7.307208180228E-08 -6.702490891416E-07 -1.718951948755E-06 -3.081334698426E-06 -4.640996579098E-06 -6.305682539774E-06 -8.010439131811E-06
 -8.194256979392E-07 -6.757991000646E-06 -1.714156473933E-05 -3.048133303692E-05 -4.559473650917E-05 -6.160691558100E-05 -7.794601365702E-05
 -4.417325444585E-14 -9.661328862182E-13 -3.623487792444E-12 -7.976199328136E-12 -1.355738026549E-11 -1.982410830861E-11 -2.635182573158E-11
 -2.083272801218E-04 -2.082930405178E-04 -2.082348461482E-04 -2.081628971144E-04 -2.080847372349E-04 -2.080047541372E-04 -2.079247088002E-04
 -5.519587527059E-04 -5.517102586727E-04 -5.512835861493E-04 -5.507494788798E-04 -5.501620411773E-04 -5.495548172776E-04 -5.489435851337E-04
  0.000000000000E+00  0.000000000000E+00  0.000000000000E+00  0.000000000000E+00  0.000000000000E+00  0.000000000000E+00  0.000000000000E+00
 -2.665330475836E-03 -2.665330566606E-03 -2.665330725246E-03 -2.665330928820E-03 -2.665331159214E-03 -2.665331403121E-03 -2.665331651914E-03
 -2.209431363824E-03 -2.209431465152E-03 -2.209431642401E-03 -2.209431870366E-03 -2.209432128912E-03 -2.209432403039E-03 -2.209432682865E-03
  0.000000000000E+00  0.000000000000E+00  0.000000000000E+00  0.000000000000E+00  0.000000000000E+00  0.000000000000E+00  0.000000000000E+00
  3.965576964469E+01  3.964572294986E+01  3.962836007285E+01  3.960645262849E+01  3.958216639236E+01  3.955689560418E+01  3.953134856602E+01
 ZONE t = "whisker load points"
 DATAPACKING=block
 zonetype =FELINESEG
 N=           7 , E=           6
 strandid =            3
 solutiontime =   25.000000000000000     
 VARSHARELIST = ([1]=1,[2]=1,[3]=1)
 CONNECTIVITYSHAREZONE =           1
 -1.984826315128E-04 -1.827551187586E-03 -4.684403257348E-03 -8.391916220963E-03 -1.263305159435E-02 -1.715741681975E-02 -2.178931377439E-02
 -3.033217427872E-05 -2.471899895250E-04 -6.195025280323E-04 -1.089580072092E-03 -1.614377346816E-03 -2.164621062801E-03 -2.723162523428E-03
 -3.343740216687E-09 -7.323268285552E-08 -2.763067523945E-07 -6.147882861978E-07 -1.056049227305E-06 -1.557376863728E-06 -2.082485644454E-06
 -6.141679384348E-01 -6.135473376079E-01 -6.124094096634E-01 -6.108634039677E-01 -6.090234106173E-01 -6.070059240126E-01 -6.049141982847E-01
 -2.991700436719E-02 -2.958332441371E-02 -2.893450563953E-02 -2.801302283481E-02 -2.688225441780E-02 -2.562040409380E-02 -2.430264735627E-02
  0.000000000000E+00 -6.876243526090E-05 -9.929684900211E-05 -1.192776920185E-04 -1.306478220417E-04 -1.355826613182E-04 -1.364933032991E-04
 -2.737383662568E-03 -2.737363100236E-03 -2.737326899773E-03 -2.737279688860E-03 -2.737225454062E-03 -2.737167427158E-03 -2.737107935613E-03
 -2.196354652129E-03 -2.196386581510E-03 -2.196442455956E-03 -2.196514772364E-03 -2.196597304579E-03 -2.196685205776E-03 -2.196775125557E-03
  0.000000000000E+00  0.000000000000E+00  0.000000000000E+00  0.000000000000E+00  0.000000000000E+00  0.000000000000E+00  0.000000000000E+00
  6.000302659679E-01  5.939073970140E-01  5.819024682106E-01  5.647146679583E-01  5.434595709687E-01  5.195666568327E-01  4.944429640338E-01
 ZONE t = "whisker load points"
 DATAPACKING=block
 zonetype =FELINESEG
 N=           7 , E=           6
 strandid =            3
 solutiontime =   37.500000000000000     
 VARSHARELIST = ([1]=1,[2]=1,[3]=1)
 CONNECTIVITYSHAREZONE =           1
 -8.506016892148E-05 -7.595521506959E-04 -1.899317000003E-03 -3.330588447331E-03 -4.925849536416E-03 -6.598204197018E-03 -8.295439733452E-03
 -6.543651755303E-05 -5.459819390037E-04 -1.397189188604E-03 -2.503626590750E-03 -3.768811117593E-03 -5.117508884756E-03 -6.497912488232E-03
 -8.835135260025E-10 -1.859752502192E-08 -6.814125492240E-08 -1.478012925588E-07 -2.487080949434E-07 -3.611584414273E-07 -4.778253355183E-07
 -6.146205882428E-01 -6.148912653275E-01 -6.153909023724E-01 -6.160698682699E-01 -6.168744993598E-01 -6.177526257278E-01 -6.186615368549E-01
 -2.962451835775E-02 -2.954622863242E-02 -2.939087912640E-02 -2.916193256133E-02 -2.886798954036E-02 -2.852689757844E-02 -2.816214741282E-02
  0.000000000000E+00  0.000000000000E+00  0.000000000000E+00  0.000000000000E+00 -5.089624927353E-05 -5.239791870437E-05 -5.274313578212E-05
 -2.801445988270E-03 -2.801444669115E-03 -2.801443151658E-03 -2.801441927713E-03 -2.801441144350E-03 -2.801440729471E-03 -2.801440519775E-03
 -2.174182223945E-03 -2.174201663254E-03 -2.174235097218E-03 -2.174277643078E-03 -2.174325541761E-03 -2.174376089892E-03 -2.174427564414E-03
  0.000000000000E+00  0.000000000000E+00  0.000000000000E+00  0.000000000000E+00  0.000000000000E+00  0.000000000000E+00  0.000000000000E+00
  5.936948029013E-01  5.918560164993E-01  5.882482766072E-01  5.829969856390E-01  5.763355197514E-01  5.686795878668E-01  5.605451898714E-01
 ZONE t = "whisker load points"
 DATAPACKING=block
 zonetype =FELINESEG
 N=           7 , E=           6
 strandid =            3
 solutiontime =   50.000000000000000     
 VARSHARELIST = ([1]=1,[2]=1,[3]=1)
 CONNECTIVITYSHAREZONE =           1
 -1.840715380778E-04 -1.690055911037E-03 -4.321852181314E-03 -7.726606579236E-03 -1.161169613395E-02 -1.574927441478E-02 -1.998165118850E-02
 -5.032075043652E-05 -4.175328532451E-04 -1.063449957552E-03 -1.897954506556E-03 -2.847764996148E-03 -3.857197298820E-03 -4.888777949687E-03
 -3.011879339920E-09 -6.523341564262E-08 -2.451606444802E-07 -5.437433232407E-07 -9.315712748450E-07 -1.371076246720E-06 -1.830837990243E-06
 -6.149217667881E-01 -6.148585928325E-01 -6.147528453822E-01 -6.146246010807E-01 -6.144894279435E-01 -6.143555649474E-01 -6.142243333338E-01
 -2.933923188374E-02 -2.961598201437E-02 -3.011699714712E-02 -3.078055315676E-02 -3.154933496651E-02 -3.237457326964E-02 -3.322119240470E-02
  0.000000000000E+00 -6.394366949112E-05 -9.222369874288E-05 -1.107825904284E-04 -1.214984417900E-04 -1.263975136413E-04 -1.276749980749E-04
 -2.864387825295E-03 -2.864372220356E-03 -2.864345027907E-03 -2.864309827768E-03 -2.864269615668E-03 -2.864226749768E-03 -2.864182881959E-03
 -2.151562822064E-03 -2.151596239626E-03 -2.151654701363E-03 -2.151730317114E-03 -2.151816565244E-03 -2.151908388247E-03 -2.152002301681E-03
  0.000000000000E+00  0.000000000000E+00  0.000000000000E+00  0.000000000000E+00  0.000000000000E+00  0.000000000000E+00  0.000000000000E+00
  5.876596627855E-01  5.932919858929E-01  6.034842613056E-01  6.169793122161E-01  6.326113832475E-01  6.493917006293E-01  6.666126391754E-01
 ZONE t = "whisker load points"
 DATAPACKING=block
 zonetype =FELINESEG
 N=           7 , E=           6
 strandid =            3
 solutiontime =   62.499999999999993     
 VARSHARELIST = ([1]=1,[2]=1,[3]=1)
 CONNECTIVITYSHAREZONE =           1
 -1.029287454059E-04 -9.266746323266E-04 -2.332217031489E-03 -4.112081450047E-03 -6.108653757052E-03 -8.210526791972E-03 -1.034813640980E-02
 -2.730481352183E-05 -2.219258981937E-04 -5.551600334788E-04 -9.752688253601E-04 -1.444118687857E-03 -1.935819163243E-03 -2.435001595695E-03
 -9.189061664835E-10 -1.946745595949E-08 -7.077458232032E-08 -1.524507735363E-07 -2.550403032334E-07 -3.686531190842E-07 -4.861317539376E-07
 -6.152620487126E-01 -6.152134887429E-01 -6.151285737577E-01 -6.150186364433E-01 -6.148930842903E-01 -6.147593315324E-01 -6.146225273613E-01
 -2.896185213411E-02 -2.901624968129E-02 -2.911849539703E-02 -2.925941596601E-02 -2.942913900264E-02 -2.961715163005E-02 -2.981348947129E-02
  0.000000000000E+00  0.000000000000E+00  0.000000000000E+00  0.000000000000E+00 -6.202247274125E-05 -6.395140172039E-05 -6.436898022868E-05
 -2.927411211781E-03 -2.927402727021E-03 -2.927388271374E-03 -2.927369929662E-03 -2.927349308187E-03 -2.927327562769E-03 -2.927305430433E-03
 -2.127840330309E-03 -2.127858964164E-03 -2.127890776585E-03 -2.127931034227E-03 -2.127976158392E-03 -2.128023635066E-03 -2.128071906107E-03
  0.000000000000E+00  0.000000000000E+00  0.000000000000E+00  0.000000000000E+00  0.000000000000E+00  0.000000000000E+00  0.000000000000E+00
  5.797413639750E-01  5.808816797935E-01  5.830195093993E-01  5.859602799022E-01  5.894971045738E-01  5.934118127216E-01  5.974991526174E-01
 ZONE t = "whisker load points"
 DATAPACKING=block
 zonetype =FELINESEG
 N=           7 , E=           6
 strandid =            3
 solutiontime =   75.000000000000000     
 VARSHARELIST = ([1]=1,[2]=1,[3]=1)
 CONNECTIVITYSHAREZONE =           1
 -1.669140044681E-04 -1.528587723650E-03 -3.900841380274E-03 -6.961413307324E-03 -1.044615456929E-02 -1.415189359363E-02 -1.793973514203E-02
 -3.351359807072E-05 -2.767475084784E-04 -7.022106480258E-04 -1.249481646013E-03 -1.870499528587E-03 -2.529370801314E-03 -3.202229850668E-03
 -2.391734632441E-09 -5.184704563764E-08 -1.940593855727E-07 -4.288031101479E-07 -7.324456032740E-07 -1.075595732804E-06 -1.434066567437E-06
 -6.143909442934E-01 -6.144999603942E-01 -6.146957857446E-01 -6.149558745538E-01 -6.152589765699E-01 -6.155863783090E-01 -6.159236549796E-01
 -2.415933352757E-02 -2.398632384431E-02 -2.368295940703E-02 -2.329478333200E-02 -2.285862380244E-02 -2.240031264054E-02 -2.193476729525E-02
  0.000000000000E+00  0.000000000000E+00 -8.258916474699E-05 -9.898628091459E-05 -1.083917115955E-04 -1.126717598283E-04 -1.137965430097E-04
 -3.028653680583E-03 -3.028641408960E-03 -3.028620066022E-03 -3.028592494575E-03 -3.028561055991E-03 -3.028527589464E-03 -3.028493366738E-03
 -2.128456745472E-03 -2.128488990584E-03 -2.128545189026E-03 -2.128617672781E-03 -2.128700175604E-03 -2.128787891654E-03 -2.128877544161E-03
  0.000000000000E+00  0.000000000000E+00  0.000000000000E+00  0.000000000000E+00  0.000000000000E+00  0.000000000000E+00  0.000000000000E+00
  4.839026296540E-01  4.803376605761E-01  4.740866205373E-01  4.660874865589E-01  4.571008060888E-01  4.476622057758E-01  4.380830672086E-01
 ZONE t = "whisker load points"
 DATAPACKING=block
 zonetype =FELINESEG
 N=           7 , E=           6
 strandid =            3
 solutiontime =   87.500000000000014     
 VARSHARELIST = ([1]=1,[2]=1,[3]=1)
 CONNECTIVITYSHAREZONE =           1
 -1.181643183327E-04 -1.070115501078E-03 -2.706339145136E-03 -4.792213237897E-03 -7.144799308750E-03 -9.630720114150E-03 -1.216367650117E-02
 -4.055080947978E-05 -3.369599887358E-04 -8.596073821998E-04 -1.536707456917E-03 -2.309386470855E-03 -3.132232949262E-03 -3.974062315154E-03
 -1.253871770483E-09 -2.690522866550E-08 -9.910922599546E-08 -2.159276764091E-07 -3.645881043047E-07 -5.307545485083E-07 -7.033933774381E-07
 -6.146175716751E-01 -6.144522517282E-01 -6.141553911427E-01 -6.137625080190E-01 -6.133065819183E-01 -6.128158368040E-01 -6.123113861753E-01
 -2.367796677307E-02 -2.373375329544E-02 -2.383844453189E-02 -2.398400788120E-02 -2.416102071807E-02 -2.435829533709E-02 -2.456464039028E-02
  0.000000000000E+00  0.000000000000E+00  0.000000000000E+00 -6.741027495416E-05 -7.316307657680E-05 -7.561716670802E-05 -7.615291917234E-05
 -3.085018936069E-03 -3.085013217693E-03 -3.085003674043E-03 -3.084991741544E-03 -3.084978477456E-03 -3.084964598897E-03 -3.084950530996E-03
 -2.098863665576E-03 -2.098888097235E-03 -2.098930258419E-03 -2.098984144004E-03 -2.099045034744E-03 -2.099109458231E-03 -2.099175144759E-03
  0.000000000000E+00  0.000000000000E+00  0.000000000000E+00  0.000000000000E+00  0.000000000000E+00  0.000000000000E+00  0.000000000000E+00
  4.740468212246E-01  4.752965449283E-01  4.776332617128E-01  4.808705436792E-01  4.847957216575E-01  4.891634591790E-01  4.937326814717E-01
 ZONE t = "whisker load points"
 DATAPACKING=block
 zonetype =FELINESEG
 N=           7 , E=           6
 strandid =            3
 solutiontime =   100.00000000000000     
 VARSHARELIST = ([1]=1,[2]=1,[3]=1)
 CONNECTIVITYSHAREZONE =           1
 -1.538470242049E-04 -1.405728548346E-03 -3.580838588816E-03 -6.380473053446E-03 -9.562266817306E-03 -1.294171302695E-02 -1.639393476305E-02
 -3.443232605190E-05 -2.850239966715E-04 -7.247310089226E-04 -1.291904899344E-03 -1.936911315510E-03 -2.622203946300E-03 -3.322499420801E-03
 -2.038957454317E-09 -4.410806902368E-08 -1.645187963577E-07 -3.624139253557E-07 -6.175106721754E-07 -9.051328799585E-07 -1.205251671767E-06
 -6.149074598416E-01 -6.150957236542E-01 -6.154344071252E-01 -6.158834537523E-01 -6.164056136054E-01 -6.169687389525E-01 -6.175484799853E-01
 -2.315432120992E-02 -2.317473161604E-02 -2.321375685608E-02 -2.326743023662E-02 -2.333175345447E-02 -2.340278075360E-02 -2.347693235874E-02
  0.000000000000E+00  0.000000000000E+00 -7.578479090397E-05 -9.067979318195E-05 -9.919413639629E-05 -1.030735747592E-04 -1.041238318547E-04
 -3.139764941832E-03 -3.139754782758E-03 -3.139737226799E-03 -3.139714656348E-03 -3.139689013006E-03 -3.139661780235E-03 -3.139633964980E-03
 -2.068400288283E-03 -2.068431280486E-03 -2.068485183168E-03 -2.068554578324E-03 -2.068633451973E-03 -2.068717228811E-03 -2.068802813787E-03
  0.000000000000E+00  0.000000000000E+00  0.000000000000E+00  0.000000000000E+00  0.000000000000E+00  0.000000000000E+00  0.000000000000E+00
  4.633026782263E-01  4.635701919587E-01  4.640973594829E-01  4.648341458842E-01  4.657278450154E-01  4.667231648897E-01  4.677665469383E-01
 ZONE t = "whisker load points"
 DATAPACKING=block
 zonetype =FELINESEG
 N=           7 , E=           6
 strandid =            3
 solutiontime =   112.50000000000001     
 VARSHARELIST = ([1]=1,[2]=1,[3]=1)
 CONNECTIVITYSHAREZONE =           1
 -1.291687073388E-04 -1.173590751073E-03 -2.975913534840E-03 -5.281744334291E-03 -7.889831283917E-03 -1.065105247313E-02 -1.346723492487E-02
 -2.839704770448E-05 -2.337627295880E-04 -5.915205334051E-04 -1.049978946049E-03 -1.568622755821E-03 -2.117700591989E-03 -2.677796053535E-03
 -1.424616255121E-09 -3.061708046934E-08 -1.131094199021E-07 -2.470951257219E-07 -4.181754455674E-07 -6.098359311421E-07 -8.091846362366E-07
 -6.151113205962E-01 -6.149439566122E-01 -6.146433024221E-01 -6.142451912664E-01 -6.137828424685E-01 -6.132848251787E-01 -6.127726743471E-01
 -2.261767214168E-02 -2.267848405110E-02 -2.278701853371E-02 -2.292964468728E-02 -2.309409913104E-02 -2.327024795577E-02 -2.345081302557E-02
  0.000000000000E+00  0.000000000000E+00 -6.251496032050E-05 -7.429067394887E-05 -8.081181814470E-05 -8.363127975186E-05 -8.426167747125E-05
 -3.194806077915E-03 -3.194797713653E-03 -3.194783355545E-03 -3.194765002725E-03 -3.194744245369E-03 -3.194722267964E-03 -3.194699854258E-03
 -2.036551565434E-03 -2.036577745640E-03 -2.036622966427E-03 -2.036680830323E-03 -2.036746280925E-03 -2.036815574873E-03 -2.036886249832E-03
  0.000000000000E+00  0.000000000000E+00  0.000000000000E+00  0.000000000000E+00  0.000000000000E+00  0.000000000000E+00  0.000000000000E+00
  4.523730622749E-01  4.537179407878E-01  4.561215810604E-01  4.592862092491E-01  4.629429780425E-01  4.668682774825E-01  4.709001510987E-01
 ZONE t = "whisker load points"
 DATAPACKING=block
 zonetype =FELINESEG
 N=           7 , E=           6
 strandid =            3
 solutiontime =   125.00000000000000     
 VARSHARELIST = ([1]=1,[2]=1,[3]=1)
 CONNECTIVITYSHAREZONE =           1
 -1.453645660554E-04 -1.325896168257E-03 -3.372715391607E-03 -6.002316500960E-03 -8.986473545494E-03 -1.215287945320E-02 -1.538588472609E-02
 -2.679541439392E-05 -2.222262219124E-04 -5.660133192032E-04 -1.010532308499E-03 -1.517088273743E-03 -2.056072978354E-03 -2.607284206643E-03
 -1.794740685620E-09 -3.871409817051E-08 -1.439670294922E-07 -3.163425155940E-07 -5.379318488552E-07 -7.873132362941E-07 -1.047289845331E-06
 -6.154931535993E-01 -6.156406052524E-01 -6.159069586830E-01 -6.162617760009E-01 -6.166760501469E-01 -6.171240592751E-01 -6.175858687579E-01
 -1.683237087298E-02 -1.676724995302E-02 -1.665657030569E-02 -1.651875737802E-02 -1.636745480816E-02 -1.621093241983E-02 -1.605307611123E-02
  0.000000000000E+00  0.000000000000E+00 -7.108648628945E-05 -8.489766288794E-05 -9.273313750432E-05 -9.626596094088E-05 -9.719540453549E-05
 -3.294949544231E-03 -3.294942578830E-03 -3.294930623203E-03 -3.294915332550E-03 -3.294898030604E-03 -3.294879707203E-03 -3.294861018728E-03
 -2.025984515632E-03 -2.026015519904E-03 -2.026069325035E-03 -2.026138478766E-03 -2.026216978374E-03 -2.026300287920E-03 -2.026385359627E-03
  0.000000000000E+00  0.000000000000E+00  0.000000000000E+00  0.000000000000E+00  0.000000000000E+00  0.000000000000E+00  0.000000000000E+00
  3.361238185221E-01  3.347393262032E-01  3.323793261124E-01  3.294313225686E-01  3.261857153345E-01  3.228227089037E-01  3.194309983520E-01
 ZONE t = "whisker load points"
 DATAPACKING=block
 zonetype =FELINESEG
 N=           7 , E=           6
 strandid =            3
 solutiontime =   137.50000000000003     
 VARSHARELIST = ([1]=1,[2]=1,[3]=1)
 CONNECTIVITYSHAREZONE =           1
 -1.358352079312E-04 -1.236253884602E-03 -3.139112257546E-03 -5.578016899208E-03 -8.340621917266E-03 -1.126828855183E-02 -1.425568235252E-02
 -2.210562234481E-05 -1.825279656081E-04 -4.631341164988E-04 -8.241095554728E-04 -1.233788742233E-03 -1.668489221705E-03 -2.112416678605E-03
 -1.554098202475E-09 -3.341946425703E-08 -1.237881139577E-07 -2.710792656328E-07 -4.596986999460E-07 -6.714273271067E-07 -8.918666926184E-07
 -6.156420101692E-01 -6.155255233667E-01 -6.153165756531E-01 -6.150403985828E-01 -6.147203029823E-01 -6.143760887970E-01 -6.140224155969E-01
 -1.622589371008E-02 -1.632640142448E-02 -1.650841231397E-02 -1.675170503764E-02 -1.703726139382E-02 -1.734759026211E-02 -1.766826342770E-02
  0.000000000000E+00  0.000000000000E+00 -6.590907403724E-05 -7.847202127515E-05 -8.548672661814E-05 -8.855763111021E-05 -8.927438376202E-05
 -3.345153028151E-03 -3.345146283929E-03 -3.345134701396E-03 -3.345119888239E-03 -3.345103127826E-03 -3.345085378430E-03 -3.345067274733E-03
 -1.992232135377E-03 -1.992261155207E-03 -1.992311368560E-03 -1.992375740868E-03 -1.992448665439E-03 -1.992525953320E-03 -1.992604822348E-03
  0.000000000000E+00  0.000000000000E+00  0.000000000000E+00  0.000000000000E+00  0.000000000000E+00  0.000000000000E+00  0.000000000000E+00
  3.239014258471E-01  3.259751371070E-01  3.297315680325E-01  3.347554099983E-01  3.406560146004E-01  3.470740758168E-01  3.537131978415E-01
 ZONE t = "whisker load points"
 DATAPACKING=block
 zonetype =FELINESEG
 N=           7 , E=           6
 strandid =            3
 solutiontime =   150.00000000000000     
 VARSHARELIST = ([1]=1,[2]=1,[3]=1)
 CONNECTIVITYSHAREZONE =           1
 -1.406579965815E-04 -1.281602821537E-03 -3.257251159298E-03 -5.792537689203E-03 -8.667084632706E-03 -1.171535088140E-02 -1.482679959253E-02
 -2.135356105196E-05 -1.763262719134E-04 -4.473982853077E-04 -7.960718504331E-04 -1.191720819748E-03 -1.611471889377E-03 -2.040119634054E-03
 -1.664126794761E-09 -3.583340955898E-08 -1.329762860993E-07 -2.916753768881E-07 -4.952797193738E-07 -7.241136701415E-07 -9.625091348345E-07
 -6.158451623446E-01 -6.159428892474E-01 -6.161183084692E-01 -6.163505145255E-01 -6.166201973314E-01 -6.169108128577E-01 -6.172098768319E-01
 -1.556159302295E-02 -1.549421702280E-02 -1.537224118952E-02 -1.520969435019E-02 -1.502008304074E-02 -1.481537925939E-02 -1.460464279371E-02
  0.000000000000E+00  0.000000000000E+00 -6.852298612974E-05 -8.173394499658E-05 -8.918769546229E-05 -9.251958690744E-05 -9.337203869846E-05
 -3.395530093082E-03 -3.395523212976E-03 -3.395511368016E-03 -3.395496187652E-03 -3.395478982924E-03 -3.395460742094E-03 -3.395442126867E-03
 -1.957280041292E-03 -1.957310494015E-03 -1.957363251873E-03 -1.957430962668E-03 -1.957507737992E-03 -1.957589155845E-03 -1.957672264104E-03
  0.000000000000E+00  0.000000000000E+00  0.000000000000E+00  0.000000000000E+00  0.000000000000E+00  0.000000000000E+00  0.000000000000E+00
  3.105031043332E-01  3.091060470665E-01  3.065788189291E-01  3.032141613201E-01  2.992932978369E-01  2.950647387873E-01  2.907160910806E-01
 ZONE t = "whisker load points"
 DATAPACKING=block
 zonetype =FELINESEG
 N=           7 , E=           6
 strandid =            3
 solutiontime =   162.50000000000000     
 VARSHARELIST = ([1]=1,[2]=1,[3]=1)
 CONNECTIVITYSHAREZONE =           1
 -1.392064975809E-04 -1.267939861253E-03 -3.221629934151E-03 -5.727815355940E-03 -8.568542649844E-03 -1.158036246012E-02 -1.465431923396E-02
 -2.238481500742E-05 -1.852959485872E-04 -4.711221268512E-04 -8.397349388217E-04 -1.258832802675E-03 -1.704012767410E-03 -2.158881536323E-03
 -1.632496630538E-09 -3.515017415089E-08 -1.303840829250E-07 -2.858740440781E-07 -4.852671903807E-07 -7.092966758786E-07 -9.426505429706E-07
 -6.160018717227E-01 -6.159226256426E-01 -6.157799621134E-01 -6.155906894784E-01 -6.153704857117E-01 -6.151329608310E-01 -6.148884838820E-01
 -1.491131757922E-02 -1.495249045003E-02 -1.502504263606E-02 -1.511937710728E-02 -1.522716332798E-02 -1.534184884224E-02 -1.545901581263E-02
  0.000000000000E+00  0.000000000000E+00 -6.772261227778E-05 -8.070266784869E-05 -8.797764916606E-05 -9.118036998169E-05 -9.194188466402E-05
 -3.446536341557E-03 -3.446530023821E-03 -3.446519186992E-03 -3.446505334999E-03 -3.446489665788E-03 -3.446473073244E-03 -3.446456150089E-03
 -1.921082850978E-03 -1.921113345007E-03 -1.921166162024E-03 -1.921233934117E-03 -1.921310765488E-03 -1.921392232984E-03 -1.921475386890E-03
  0.000000000000E+00  0.000000000000E+00  0.000000000000E+00  0.000000000000E+00  0.000000000000E+00  0.000000000000E+00  0.000000000000E+00
  2.974195482753E-01  2.982813176260E-01  2.998019261971E-01  3.017820266986E-01  3.040480047651E-01  3.064625124641E-01  3.089322032170E-01
 ZONE t = "whisker load points"
 DATAPACKING=block
 zonetype =FELINESEG
 N=           7 , E=           6
 strandid =            3
 solutiontime =   175.00000000000003     
 VARSHARELIST = ([1]=1,[2]=1,[3]=1)
 CONNECTIVITYSHAREZONE =           1
 -1.405034137933E-04 -1.279757651884E-03 -3.251671027173E-03 -5.781251220350E-03 -8.648513168755E-03 -1.168847554467E-02 -1.479115473231E-02
 -1.618560634058E-05 -1.348292804874E-04 -3.447409571554E-04 -6.175839326084E-04 -9.298217599155E-04 -1.263001337394E-03 -1.604213346168E-03
 -1.647632092752E-09 -3.545998479191E-08 -1.315269215162E-07 -2.883903729363E-07 -4.895652142882E-07 -7.156136562090E-07 -9.510778861950E-07
 -6.219456920328E-01 -6.220181007659E-01 -6.221501951176E-01 -6.223275668147E-01 -6.225359444591E-01 -6.227621946464E-01 -6.229958425792E-01
 -8.567920987251E-03 -8.608684377873E-03 -8.690387907647E-03 -8.809177785361E-03 -8.957639279187E-03 -9.125436030398E-03 -9.302031745741E-03
  0.000000000000E+00  0.000000000000E+00 -6.891758015467E-05 -8.217598541249E-05 -8.964654562073E-05 -9.298012048077E-05 -9.382916049558E-05
 -3.548182370026E-03 -3.548178244603E-03 -3.548171227482E-03 -3.548162322073E-03 -3.548152307510E-03 -3.548141746452E-03 -3.548130997600E-03
 -1.897686159089E-03 -1.897717985057E-03 -1.897773101272E-03 -1.897843827930E-03 -1.897924015897E-03 -1.898009048368E-03 -1.898095843658E-03
  0.000000000000E+00  0.000000000000E+00  0.000000000000E+00  0.000000000000E+00  0.000000000000E+00  0.000000000000E+00  0.000000000000E+00
  1.690784678885E-01  1.698642390679E-01  1.714422739023E-01  1.737395778816E-01  1.766127690802E-01  1.798606893786E-01  1.832778843452E-01
 ZONE t = "whisker load points"
 DATAPACKING=block
 zonetype =FELINESEG
 N=           7 , E=           6
 strandid =            3
 solutiontime =   187.50000000000003     
 VARSHARELIST = ([1]=1,[2]=1,[3]=1)
 CONNECTIVITYSHAREZONE =           1
 -1.413713556370E-04 -1.287903783242E-03 -3.272864476610E-03 -5.819696497572E-03 -8.706978841222E-03 -1.176850348791E-02 -1.489336518074E-02
 -6.425687380557E-06 -5.202656467059E-05 -1.297988759341E-04 -2.276222997107E-04 -3.367146319129E-04 -4.511379920768E-04 -5.673207320468E-04
 -1.652812207266E-09 -3.558258094061E-08 -1.319834548995E-07 -2.894011947800E-07 -4.912983104420E-07 -7.181671402007E-07 -9.544901575708E-07
 -6.220404455267E-01 -6.220115263430E-01 -6.219601652921E-01 -6.218930522255E-01 -6.218161940779E-01 -6.217343493284E-01 -6.216506967945E-01
 -7.797188467400E-03 -7.863565322416E-03 -7.984566678134E-03 -8.147511874966E-03 -8.340301423283E-03 -8.551217292362E-03 -8.770008675797E-03
  0.000000000000E+00  0.000000000000E+00 -6.929046944274E-05 -8.260049516478E-05 -9.007779349967E-05 -9.338631030332E-05 -9.419207450485E-05
 -3.595578504186E-03 -3.595572695059E-03 -3.595562604904E-03 -3.595549603394E-03 -3.595534812701E-03 -3.595519093406E-03 -3.595503030672E-03
 -1.856610728013E-03 -1.856642617602E-03 -1.856697820213E-03 -1.856768637109E-03 -1.856848910113E-03 -1.856934020626E-03 -1.857020889164E-03
  0.000000000000E+00  0.000000000000E+00  0.000000000000E+00  0.000000000000E+00  0.000000000000E+00  0.000000000000E+00  0.000000000000E+00
  1.538256670459E-01  1.551441123290E-01  1.575476143480E-01  1.607845132407E-01  1.646147240788E-01  1.688058155275E-01  1.731545319428E-01
 ZONE t = "whisker load points"
 DATAPACKING=block
 zonetype =FELINESEG
 N=           7 , E=           6
 strandid =            3
 solutiontime =   200.00000000000000     
 VARSHARELIST = ([1]=1,[2]=1,[3]=1)
 CONNECTIVITYSHAREZONE =           1
 -1.396884351828E-04 -1.272060104253E-03 -3.231546087978E-03 -5.744595684513E-03 -8.592590648045E-03 -1.161174838422E-02 -1.469300397490E-02
 -8.161441671727E-06 -6.706554656380E-05 -1.694816913675E-04 -3.005463879920E-04 -4.487020597847E-04 -6.055045697901E-04 -7.654524101415E-04
 -1.615694170888E-09 -3.474875873802E-08 -1.288020138339E-07 -2.822609925281E-07 -4.789517790164E-07 -6.998718397104E-07 -9.299466383137E-07
 -6.221480465899E-01 -6.221623243302E-01 -6.221876409424E-01 -6.222210200138E-01 -6.222597650136E-01 -6.223015797119E-01 -6.223446694426E-01
 -6.989467284782E-03 -6.919026760804E-03 -6.790861995635E-03 -6.619946659240E-03 -6.420631280581E-03 -6.205555813782E-03 -5.984223958881E-03
  0.000000000000E+00  0.000000000000E+00 -6.841614978211E-05 -8.153747393748E-05 -8.890683239781E-05 -9.217200180071E-05 -9.297721393419E-05
 -3.642976810407E-03 -3.642971926951E-03 -3.642963489632E-03 -3.642952659947E-03 -3.642940375184E-03 -3.642927343657E-03 -3.642914040555E-03
 -1.814277245931E-03 -1.814309277805E-03 -1.814364709807E-03 -1.814435800598E-03 -1.814516365232E-03 -1.814601771289E-03 -1.814688934612E-03
  0.000000000000E+00  0.000000000000E+00  0.000000000000E+00  0.000000000000E+00  0.000000000000E+00  0.000000000000E+00  0.000000000000E+00
  1.378482170964E-01  1.364542319841E-01  1.339183049065E-01  1.305370628207E-01  1.265947167644E-01  1.223414883466E-01  1.179654407889E-01
 ZONE t = "whisker load points"
 DATAPACKING=block
 zonetype =FELINESEG
 N=           7 , E=           6
 strandid =            3
 solutiontime =   212.50000000000003     
 VARSHARELIST = ([1]=1,[2]=1,[3]=1)
 CONNECTIVITYSHAREZONE =           1
 -1.417492092047E-04 -1.291435066014E-03 -3.282014089247E-03 -5.836227619838E-03 -8.732026477957E-03 -1.180268344176E-02 -1.493691728257E-02
 -1.238259069920E-05 -1.032309544604E-04 -2.640778568215E-04 -4.732000253819E-04 -7.124906269825E-04 -9.677668470533E-04 -1.229156424371E-03
 -1.669348653790E-09 -3.594768432293E-08 -1.333813565901E-07 -2.925426524961E-07 -4.967314346213E-07 -7.262163965912E-07 -9.652861994428E-07
 -6.222491250560E-01 -6.222293220424E-01 -6.221933768317E-01 -6.221453531920E-01 -6.220891336897E-01 -6.220282099634E-01 -6.219653424977E-01
 -6.249585716500E-03 -6.258339189498E-03 -6.272579643857E-03 -6.289667766486E-03 -6.307737641427E-03 -6.325791353641E-03 -6.343587329870E-03
  0.000000000000E+00  0.000000000000E+00 -6.953692862049E-05 -8.290272946148E-05 -9.041459406433E-05 -9.374069597615E-05 -9.455284133117E-05
 -3.689090826131E-03 -3.689087026565E-03 -3.689080547779E-03 -3.689072310790E-03 -3.689063033239E-03 -3.689053237512E-03 -3.689043260922E-03
 -1.774531950548E-03 -1.774564890965E-03 -1.774621944393E-03 -1.774695168386E-03 -1.774778198092E-03 -1.774866251079E-03 -1.774956133006E-03
  0.000000000000E+00  0.000000000000E+00  0.000000000000E+00  0.000000000000E+00  0.000000000000E+00  0.000000000000E+00  0.000000000000E+00
  1.232208260756E-01  1.233975263643E-01  1.236857612336E-01  1.240326521502E-01  1.244006205991E-01  1.247692824928E-01  1.251333203701E-01
 ZONE t = "whisker load points"
 DATAPACKING=block
 zonetype =FELINESEG
 N=           7 , E=           6
 strandid =            3
 solutiontime =   225.00000000000003     
 VARSHARELIST = ([1]=1,[2]=1,[3]=1)
 CONNECTIVITYSHAREZONE =           1
 -1.394561639103E-04 -1.269918841953E-03 -3.226052685446E-03 -5.734747710127E-03 -8.577758280234E-03 -1.159159670593E-02 -1.466740453927E-02
 -3.219930644110E-06 -2.777091815385E-05 -7.314743163325E-05 -1.344600399506E-04 -2.068142003981E-04 -2.856301160154E-04 -3.671559365291E-04
 -1.606497720012E-09 -3.455397925194E-08 -1.280810215756E-07 -2.806855909721E-07 -4.762870530708E-07 -6.959884434226E-07 -9.247962079642E-07
 -6.214745363200E-01 -6.214993838216E-01 -6.215449816899E-01 -6.216065607373E-01 -6.217102195324E-01 -6.218638573545E-01 -6.220232421937E-01
  7.469219437789E-04  6.430070289746E-04  4.469699772982E-04  1.761781457057E-04 -1.493698390459E-04 -5.084316031651E-04 -8.819973015045E-04