variables="x","y","z","u","v","w","load_fx","load_fy","load_fz","flow_u","flow_v","flow_w","AOA"
 ZONE t = "whisker load points"
 DATAPACKING=block
 zonetype =FELINESEG
 N=           7 , E=           6
 strandid =            3
 solutiontime =   0.0000000000000000     
PASSIVEVARLIST=[4,5,6,7,8,9,10,11,12,13,]
  1.500000000000E+02  1.500000000000E+02  1.500000000000E+02  1.500000000000E+02  1.500000000000E+02  1.500000000000E+02  1.500000000000E+02
  5.300000000000E+02  5.300000000000E+02  5.300000000000E+02  5.300000000000E+02  5.300000000000E+02  5.300000000000E+02  5.300000000000E+02
  1.034400000000E+01  3.103200000000E+01  5.172000000000E+01  7.240800000000E+01  9.309600000000E+01  1.137840000000E+02  1.344720000000E+02
           1           2
           2           3
           3           4
           4           5
           5           6
           6           7
 ZONE t = "whisker load points"
 DATAPACKING=block
 zonetype =FELINESEG
 N=           7 , E=           6
 strandid =            3
 solutiontime =   12.500000000000000     
 VARSHARELIST = ([1]=1,[2]=1,[3]=1)
 CONNECTIVITYSHAREZONE =           1
 -1.033614935470E-07 -9.480800880039E-07 -2.431487123152E-06 -4.358594879109E-06 -6.564751931537E-06 -8.919462741892E-06 -1.133085112744E-05
 -9.306647697790E-07 -7.675126409242E-06 -1.946724678049E-05 -3.461594241632E-05 -5.177822950141E-05 -6.996074679877E-05 -8.851429765627E-05
 -5.728248761374E-14 -1.253021933990E-12 -4.699471320220E-12 -1.034496178975E-11 -1.758416571111E-11 -2.571290619710E-11 -3.418034389932E-11
 -2.947077716052E-04 -2.946761383955E-04 -2.946230099339E-04 -2.945582941272E-04 -2.944890581305E-04 -2.944191103714E-04 -2.943496437194E-04
 -6.278132723233E-04 -6.275331194626E-04 -6.270525178320E-04 -6.264515414166E-04 -6.257912389136E-04 -6.251092521872E-04 -6.244230696100E-04
  0.000000000000E+00  0.000000000000E+00  0.000000000000E+00  0.000000000000E+00  0.000000000000E+00  0.000000000000E+00  0.000000000000E+00
 -3.373594479105E-03 -3.373594618668E-03 -3.373594862575E-03 -3.373595175557E-03 -3.373595529765E-03 -3.373595904745E-03 -3.373596287235E-03
 -2.135481707446E-03 -2.135481837729E-03 -2.135482065665E-03 -2.135482358968E-03 -2.135482691777E-03 -2.135483044764E-03 -2.135483405150E-03
  0.000000000000E+00  0.000000000000E+00  0.000000000000E+00  0.000000000000E+00  0.000000000000E+00  0.000000000000E+00  0.000000000000E+00
  3.233232600912E+01  3.232149277744E+01  3.230277508873E+01  3.227916525634E+01  3.225299976716E+01  3.222578106629E+01  3.219827087269E+01
 ZONE t = "whisker load points"
 DATAPACKING=block
 zonetype =FELINESEG
 N=           7 , E=           6
 strandid =            3
 solutiontime =   25.000000000000000     
 VARSHARELIST = ([1]=1,[2]=1,[3]=1)
 CONNECTIVITYSHAREZONE =           1
 -1.997964382010E-04 -1.839644063835E-03 -4.715389763296E-03 -8.447411687309E-03 -1.271657428697E-02 -1.727083182965E-02 -2.193332817756E-02
 -2.892919080022E-05 -2.358477850760E-04 -5.912814057971E-04 -1.040272203645E-03 -1.541739996861E-03 -2.067679967898E-03 -2.601631743418E-03
 -3.381880673950E-09 -7.407356594505E-08 -2.794980857846E-07 -6.219302451198E-07 -1.068377088909E-06 -1.575624016335E-06 -2.106946660838E-06
 -6.183067084434E-01 -6.176824983252E-01 -6.165382181819E-01 -6.149838688669E-01 -6.131341865608E-01 -6.111062253129E-01 -6.090036915288E-01
 -2.828849851883E-02 -2.797485095646E-02 -2.736449276465E-02 -2.649712002233E-02 -2.543233167848E-02 -2.424384643219E-02 -2.300258905189E-02
  0.000000000000E+00 -6.963523766126E-05 -1.005608407365E-04 -1.208009529501E-04 -1.323217437014E-04 -1.373251285132E-04 -1.382523258126E-04
 -3.455297770121E-03 -3.455277025581E-03 -3.455240470492E-03 -3.455192739651E-03 -3.455137850651E-03 -3.455079081557E-03 -3.455018807983E-03
 -2.091406337369E-03 -2.091448623041E-03 -2.091522662367E-03 -2.091618556820E-03 -2.091728064864E-03 -2.091844746601E-03 -2.091964132827E-03
  0.000000000000E+00  0.000000000000E+00  0.000000000000E+00  0.000000000000E+00  0.000000000000E+00  0.000000000000E+00  0.000000000000E+00
  5.633967141648E-01  5.576863284426E-01  5.464796183923E-01  5.304236126783E-01  5.105590145102E-01  4.882232661811E-01  4.647341332303E-01
 ZONE t = "whisker load points"
 DATAPACKING=block
 zonetype =FELINESEG
 N=           7 , E=           6
 strandid =            3
 solutiontime =   37.500000000000000     
 VARSHARELIST = ([1]=1,[2]=1,[3]=1)
 CONNECTIVITYSHAREZONE =           1
 -8.567567545617E-05 -7.650652745461E-04 -1.913138747086E-03 -3.354881187706E-03 -4.961846703279E-03 -6.646495533822E-03 -8.356220422331E-03
 -6.171518743473E-05 -5.149740410798E-04 -1.317930215181E-03 -2.361742041397E-03 -3.555397958160E-03 -4.827902862478E-03 -6.130350553850E-03
 -8.605920274579E-10 -1.808141790014E-08 -6.613549299287E-08 -1.432610375547E-07 -2.408250758417E-07 -3.494533392625E-07 -4.621032380912E-07
 -6.188023229358E-01 -6.190769930671E-01 -6.195840429003E-01 -6.202731570711E-01 -6.210899298588E-01 -6.219814216819E-01 -6.229042368541E-01
 -2.781413495969E-02 -2.774424791648E-02 -2.760466021747E-02 -2.739759408746E-02 -2.713032619795E-02 -2.681910447077E-02 -2.648574462405E-02
  0.000000000000E+00  0.000000000000E+00  0.000000000000E+00  0.000000000000E+00 -5.138604284506E-05 -5.290425762298E-05 -5.325652850046E-05
 -3.529609342486E-03 -3.529609777830E-03 -3.529611416492E-03 -3.529614339485E-03 -3.529618334760E-03 -3.529623038990E-03 -3.529628081502E-03
 -2.056748959201E-03 -2.056772558419E-03 -2.056813012074E-03 -2.056864364127E-03 -2.056922070612E-03 -2.056982895449E-03 -2.057044796975E-03
  0.000000000000E+00  0.000000000000E+00  0.000000000000E+00  0.000000000000E+00  0.000000000000E+00  0.000000000000E+00  0.000000000000E+00
  5.534592947092E-01  5.518160790760E-01  5.485754898875E-01  5.438339702879E-01  5.377932771142E-01  5.308309778400E-01  5.234235169727E-01
 ZONE t = "whisker load points"
 DATAPACKING=block
 zonetype =FELINESEG
 N=           7 , E=           6
 strandid =            3
 solutiontime =   50.000000000000000     
 VARSHARELIST = ([1]=1,[2]=1,[3]=1)
 CONNECTIVITYSHAREZONE =           1
 -1.852957020507E-04 -1.701287193457E-03 -4.350555575851E-03 -7.777895734549E-03 -1.168874150279E-02 -1.585373866764E-02 -2.011415694103E-02
 -4.691499849387E-05 -3.892663786460E-04 -9.914351030235E-04 -1.769391785188E-03 -2.654813145038E-03 -3.595791516992E-03 -4.557402647793E-03
 -3.027725885904E-09 -6.557352024472E-08 -2.464262239479E-07 -5.465485156864E-07 -9.363878078802E-07 -1.378183062388E-06 -1.840345582183E-06
 -6.191404325002E-01 -6.190747272523E-01 -6.189644634199E-01 -6.188303284759E-01 -6.186884367921E-01 -6.185474504368E-01 -6.184089543339E-01
 -2.735286114741E-02 -2.761846033874E-02 -2.809910183793E-02 -2.873546223891E-02 -2.947254546351E-02 -3.026362658896E-02 -3.107514097310E-02
  0.000000000000E+00 -6.470168626090E-05 -9.331380847007E-05 -1.120877429046E-04 -1.229244945982E-04 -1.278750802828E-04 -1.291611965320E-04
 -3.601938179870E-03 -3.601923330795E-03 -3.601897478681E-03 -3.601864006770E-03 -3.601825754669E-03 -3.601784965586E-03 -3.601743216990E-03
 -2.022142832046E-03 -2.022186172795E-03 -2.022261973018E-03 -2.022360019514E-03 -2.022471863694E-03 -2.022590947192E-03 -2.022712746466E-03
  0.000000000000E+00  0.000000000000E+00  0.000000000000E+00  0.000000000000E+00  0.000000000000E+00  0.000000000000E+00  0.000000000000E+00
  5.439398455346E-01  5.493046571145E-01  5.590093655730E-01  5.718549674293E-01  5.867313532467E-01  6.026982349405E-01  6.190833852272E-01
 ZONE t = "whisker load points"
 DATAPACKING=block
 zonetype =FELINESEG
 N=           7 , E=           6
 strandid =            3
 solutiontime =   62.499999999999993     
 VARSHARELIST = ([1]=1,[2]=1,[3]=1)
 CONNECTIVITYSHAREZONE =           1
 -1.036718689943E-04 -9.333775539766E-04 -2.349112938957E-03 -4.141912576515E-03 -6.153020240534E-03 -8.270213451478E-03 -1.042341308491E-02
 -2.499075828596E-05 -2.030040391526E-04 -5.075689734994E-04 -8.912547949347E-04 -1.319194967116E-03 -1.767800537707E-03 -2.223133306025E-03
 -9.234440334292E-10 -1.956636533366E-08 -7.113287181189E-08 -1.532264970421E-07 -2.563472003755E-07 -3.705537379037E-07 -4.886487377040E-07
 -6.195182188832E-01 -6.194689655364E-01 -6.193827770473E-01 -6.192711158649E-01 -6.191435182210E-01 -6.190075244645E-01 -6.188683936388E-01
 -2.680067858565E-02 -2.685330831855E-02 -2.695198525115E-02 -2.708770464521E-02 -2.725090681362E-02 -2.743151076826E-02 -2.762001760253E-02
  0.000000000000E+00  0.000000000000E+00  0.000000000000E+00  0.000000000000E+00 -6.278967240815E-05 -6.474229395199E-05 -6.516443699821E-05
 -3.674311584616E-03 -3.674303345044E-03 -3.674289306446E-03 -3.674271477058E-03 -3.674251412694E-03 -3.674230240388E-03 -3.674208684344E-03
 -1.986257412256E-03 -1.986281416413E-03 -1.986322388342E-03 -1.986374243135E-03 -1.986432375470E-03 -1.986493545763E-03 -1.986555742872E-03
  0.000000000000E+00  0.000000000000E+00  0.000000000000E+00  0.000000000000E+00  0.000000000000E+00  0.000000000000E+00  0.000000000000E+00
  5.325832283548E-01  5.336764242471E-01  5.357212597190E-01  5.385287416827E-01  5.419003890919E-01  5.456287650314E-01  5.495197743017E-01
 ZONE t = "whisker load points"
 DATAPACKING=block
 zonetype =FELINESEG
 N=           7 , E=           6
 strandid =            3
 solutiontime =   75.000000000000000     
 VARSHARELIST = ([1]=1,[2]=1,[3]=1)
 CONNECTIVITYSHAREZONE =           1
 -1.678923868329E-04 -1.537536551812E-03 -3.923654886158E-03 -7.002090058278E-03 -1.050714815616E-02 -1.423447645264E-02 -1.804437713740E-02
 -2.828832007775E-05 -2.339496551761E-04 -5.944303736779E-04 -1.059033250467E-03 -1.587130636800E-03 -2.148085673374E-03 -2.721295110690E-03
 -2.397471360811E-09 -5.197754945386E-08 -1.945564684666E-07 -4.299356862063E-07 -7.344371464461E-07 -1.078586990383E-06 -1.438115764231E-06
 -6.181350002439E-01 -6.182519472654E-01 -6.184626343831E-01 -6.187431675846E-01 -6.190707708227E-01 -6.194251334334E-01 -6.197904280272E-01
 -1.950465379003E-02 -1.936954578352E-02 -1.913809440284E-02 -1.884987741722E-02 -1.853448771683E-02 -1.820979595584E-02 -1.788351338200E-02
  0.000000000000E+00  0.000000000000E+00 -8.339510018820E-05 -9.996068061359E-05 -1.094691363764E-04 -1.138030206365E-04 -1.149504526859E-04
 -3.768653617789E-03 -3.768643209821E-03 -3.768625138908E-03 -3.768601810672E-03 -3.768575222934E-03 -3.768546929573E-03 -3.768518002528E-03
 -1.887344139277E-03 -1.887385118090E-03 -1.887456535366E-03 -1.887548668939E-03 -1.887653561170E-03 -1.887765098858E-03 -1.887879106951E-03
  0.000000000000E+00  0.000000000000E+00  0.000000000000E+00  0.000000000000E+00  0.000000000000E+00  0.000000000000E+00  0.000000000000E+00
  3.879912722460E-01  3.852217995713E-01  3.804738214431E-01  3.745553611757E-01  3.680734362779E-01  3.613982277252E-01  3.546934789863E-01
 ZONE t = "whisker load points"
 DATAPACKING=block
 zonetype =FELINESEG
 N=           7 , E=           6
 strandid =            3
 solutiontime =   87.500000000000014     
 VARSHARELIST = ([1]=1,[2]=1,[3]=1)
 CONNECTIVITYSHAREZONE =           1
 -1.189409325299E-04 -1.077167473103E-03 -2.724212071037E-03 -4.823920106323E-03 -7.192143956779E-03 -9.694613550930E-03 -1.224444434445E-02
 -3.132437658998E-05 -2.601773580008E-04 -6.635263591264E-04 -1.185936640377E-03 -1.782033312696E-03 -2.416831683067E-03 -3.066281451260E-03
 -1.224762260748E-09 -2.626221968766E-08 -9.663244656416E-08 -2.103576215704E-07 -3.549598416154E-07 -5.164988131937E-07 -6.842796686783E-07
 -6.183670231730E-01 -6.182022178352E-01 -6.179064111132E-01 -6.175151211782E-01 -6.170612992527E-01 -6.165730508359E-01 -6.160713002367E-01
 -1.881754874709E-02 -1.888715403711E-02 -1.901759918313E-02 -1.919866664872E-02 -1.941865252554E-02 -1.966375645159E-02 -1.992014998670E-02
  0.000000000000E+00  0.000000000000E+00  0.000000000000E+00 -6.793662784309E-05 -7.373185577035E-05 -7.620351196436E-05 -7.674281398358E-05
 -3.831189440543E-03 -3.831184771708E-03 -3.831177031681E-03 -3.831167398200E-03 -3.831156728388E-03 -3.831145593148E-03 -3.831134321762E-03
 -1.844296818816E-03 -1.844326842206E-03 -1.844378563339E-03 -1.844444594490E-03 -1.844519150021E-03 -1.844597989357E-03 -1.844678352118E-03
  0.000000000000E+00  0.000000000000E+00  0.000000000000E+00  0.000000000000E+00  0.000000000000E+00  0.000000000000E+00  0.000000000000E+00
  3.741390910066E-01  3.756278369983E-01  3.784120721851E-01  3.822694562385E-01  3.869492737173E-01  3.921608836136E-01  3.976160532099E-01
 ZONE t = "whisker load points"
 DATAPACKING=block
 zonetype =FELINESEG
 N=           7 , E=           6
 strandid =            3
 solutiontime =   100.00000000000000     
 VARSHARELIST = ([1]=1,[2]=1,[3]=1)
 CONNECTIVITYSHAREZONE =           1
 -1.547342647769E-04 -1.413821352727E-03 -3.601424703601E-03 -6.417109896733E-03 -9.617118785762E-03 -1.301589277589E-02 -1.648784904497E-02
 -2.627561664045E-05 -2.174118306907E-04 -5.526462477336E-04 -9.849375637255E-04 -1.476479700536E-03 -1.998696358420E-03 -2.532341235212E-03
 -2.028592573334E-09 -4.388179868392E-08 -1.636447119851E-07 -3.604571953375E-07 -6.141480008562E-07 -9.001784923449E-07 -1.198631332679E-06
 -6.186624123063E-01 -6.188482034207E-01 -6.191823284648E-01 -6.196252606578E-01 -6.201402666230E-01 -6.206956602733E-01 -6.212674369221E-01
 -1.808588111090E-02 -1.808036127182E-02 -1.807213520518E-02 -1.806281552371E-02 -1.805372075474E-02 -1.804555592292E-02 -1.803820040893E-02
  0.000000000000E+00  0.000000000000E+00 -7.644292948428E-05 -9.146333112149E-05 -1.000468262218E-04 -1.039550400775E-04 -1.050097758504E-04
 -3.892043575586E-03 -3.892034881663E-03 -3.892019867890E-03 -3.892000566307E-03 -3.891978636163E-03 -3.891955346568E-03 -3.891931559252E-03
 -1.800367514363E-03 -1.800406514583E-03 -1.800474311485E-03 -1.800561583287E-03 -1.800660770876E-03 -1.800766122212E-03 -1.800873745422E-03
  0.000000000000E+00  0.000000000000E+00  0.000000000000E+00  0.000000000000E+00  0.000000000000E+00  0.000000000000E+00  0.000000000000E+00
  3.593753372429E-01  3.591571358820E-01  3.587989365502E-01  3.583562232069E-01  3.578768925546E-01  3.573935070637E-01  3.569176104949E-01
 ZONE t = "whisker load points"
 DATAPACKING=block
 zonetype =FELINESEG
 N=           7 , E=           6
 strandid =            3
 solutiontime =   112.50000000000001     
 VARSHARELIST = ([1]=1,[2]=1,[3]=1)
 CONNECTIVITYSHAREZONE =           1
 -1.299896519094E-04 -1.181059702028E-03 -2.994873610167E-03 -5.315427419793E-03 -7.940186897066E-03 -1.071907360859E-02 -1.355328043819E-02
 -2.230738361258E-05 -1.838081383342E-04 -4.655143868796E-04 -8.269551657442E-04 -1.236258436644E-03 -1.669882181292E-03 -2.112360550426E-03
 -1.421532463498E-09 -3.055514981082E-08 -1.128736348023E-07 -2.465820917043E-07 -4.173184435884E-07 -6.086020176889E-07 -8.075620732722E-07
 -6.188718142335E-01 -6.187024795927E-01 -6.183981971763E-01 -6.179951762553E-01 -6.175270181644E-01 -6.170226571337E-01 -6.165039351441E-01
 -1.734276005825E-02 -1.740156582961E-02 -1.750595571080E-02 -1.764244065520E-02 -1.779909605256E-02 -1.796630692405E-02 -1.813738613453E-02
  0.000000000000E+00  0.000000000000E+00 -6.311149329080E-05 -7.499934052013E-05 -8.158198814318E-05 -8.442705350067E-05 -8.506170596183E-05
 -3.953278070128E-03 -3.953271149025E-03 -3.953259294796E-03 -3.953244158867E-03 -3.953227052202E-03 -3.953208948617E-03 -3.953190490366E-03
 -1.754590522546E-03 -1.754623584115E-03 -1.754680671891E-03 -1.754753720954E-03 -1.754836352380E-03 -1.754923840092E-03 -1.755013072859E-03
  0.000000000000E+00  0.000000000000E+00  0.000000000000E+00  0.000000000000E+00  0.000000000000E+00  0.000000000000E+00  0.000000000000E+00
  3.444492233961E-01  3.457154631525E-01  3.479671091490E-01  3.509174519991E-01  3.543119472027E-01  3.579437715885E-01  3.616675809990E-01
 ZONE t = "whisker load points"
 DATAPACKING=block
 zonetype =FELINESEG
 N=           7 , E=           6
 strandid =            3
 solutiontime =   125.00000000000000     
 VARSHARELIST = ([1]=1,[2]=1,[3]=1)
 CONNECTIVITYSHAREZONE =           1
 -1.459849550504E-04 -1.331531818623E-03 -3.387003152020E-03 -6.027669886400E-03 -9.024339223197E-03 -1.220398880013E-02 -1.545049916376E-02
 -1.729105651610E-05 -1.440750643363E-04 -3.684955975842E-04 -6.603672709019E-04 -9.945798252112E-04 -1.351381120942E-03 -1.716888991075E-03
 -1.781687492435E-09 -3.843187527038E-08 -1.428923177185E-07 -3.139546385146E-07 -5.338469078770E-07 -7.813124173964E-07 -1.039286807041E-06
 -6.184260689622E-01 -6.185849151621E-01 -6.188725288579E-01 -6.192564549808E-01 -6.197054821155E-01 -6.201916459343E-01 -6.206930792834E-01
 -9.145978387949E-03 -9.125314955905E-03 -9.098214082215E-03 -9.075489308022E-03 -9.062171291254E-03 -9.057543628705E-03 -9.057636998279E-03
  0.000000000000E+00  0.000000000000E+00 -7.151931493460E-05 -8.541958423320E-05 -9.331063519652E-05 -9.687452351535E-05 -9.781981425684E-05
 -4.025373276263E-03 -4.025369191277E-03 -4.025362253655E-03 -4.025353452176E-03 -4.025343557172E-03 -4.025333125229E-03 -4.025322510289E-03
 -1.640134388512E-03 -1.640172656902E-03 -1.640239037809E-03 -1.640324342777E-03 -1.640421169955E-03 -1.640523925972E-03 -1.640628852592E-03
  0.000000000000E+00  0.000000000000E+00  0.000000000000E+00  0.000000000000E+00  0.000000000000E+00  0.000000000000E+00  0.000000000000E+00
  1.815320642790E-01  1.810747212534E-01  1.804521125360E-01  1.798889453583E-01  1.794942149489E-01  1.792615717041E-01  1.791183836459E-01
 ZONE t = "whisker load points"
 DATAPACKING=block
 zonetype =FELINESEG
 N=           7 , E=           6
 strandid =            3
 solutiontime =   137.50000000000003     
 VARSHARELIST = ([1]=1,[2]=1,[3]=1)
 CONNECTIVITYSHAREZONE =           1
 -1.365685936820E-04 -1.242955551359E-03 -3.156183906589E-03 -5.608435322291E-03 -8.386207583973E-03 -1.132998217991E-02 -1.433382994437E-02
 -8.081738039908E-06 -6.597565681906E-05 -1.658125770715E-04 -2.926947998436E-04 -4.353979524791E-04 -5.859478184609E-04 -7.392574425787E-04
 -1.542359159357E-09 -3.316565756914E-08 -1.228193475143E-07 -2.689242452624E-07 -4.560090159690E-07 -6.660036900839E-07 -8.846303668939E-07
 -6.185474207333E-01 -6.184324666079E-01 -6.182264182336E-01 -6.179543059879E-01 -6.176392251184E-01 -6.173006814642E-01 -6.169529955276E-01
 -8.333011828755E-03 -8.447339978219E-03 -8.654991958333E-03 -8.933459185123E-03 -9.261406863523E-03 -9.618775298774E-03 -9.988602010058E-03
  0.000000000000E+00  0.000000000000E+00 -6.636728416766E-05 -7.901592036943E-05 -8.607695052928E-05 -8.916622659021E-05 -8.988474235103E-05
 -4.077841520697E-03 -4.077836097673E-03 -4.077826710591E-03 -4.077814643497E-03 -4.077800940914E-03 -4.077786396565E-03 -4.077771544323E-03
 -1.592470205530E-03 -1.592505847784E-03 -1.592567481054E-03 -1.592646472291E-03 -1.592735943460E-03 -1.592830758187E-03 -1.592927506896E-03
  0.000000000000E+00  0.000000000000E+00  0.000000000000E+00  0.000000000000E+00  0.000000000000E+00  0.000000000000E+00  0.000000000000E+00
  1.653410199563E-01  1.676438972889E-01  1.718282277030E-01  1.774431670727E-01  1.840612378411E-01  1.912800714573E-01  1.987589727177E-01
 ZONE t = "whisker load points"
 DATAPACKING=block
 zonetype =FELINESEG
 N=           7 , E=           6
 strandid =            3
 solutiontime =   150.00000000000000     
 VARSHARELIST = ([1]=1,[2]=1,[3]=1)
 CONNECTIVITYSHAREZONE =           1
 -1.412306690157E-04 -1.286795775099E-03 -3.270398073398E-03 -5.815838721193E-03 -8.701851026521E-03 -1.176224169980E-02 -1.488604910960E-02
 -8.772769365413E-06 -7.212737757724E-05 -1.823679814412E-04 -3.235591823742E-04 -4.832762368250E-04 -6.524050394903E-04 -8.249770514447E-04
 -1.652161835295E-09 -3.557378118579E-08 -1.319856707625E-07 -2.894702982772E-07 -4.915014779594E-07 -7.185565538930E-07 -9.550916587681E-07
 -6.187209273059E-01 -6.188134258588E-01 -6.189792821771E-01 -6.191987125522E-01 -6.194534822616E-01 -6.197279966550E-01 -6.200104861803E-01
 -7.453124784137E-03 -7.355638766683E-03 -7.178801788522E-03 -6.943131660251E-03 -6.668301900176E-03 -6.371672529990E-03 -6.066328534587E-03
  0.000000000000E+00  0.000000000000E+00 -6.892536634406E-05 -8.221153001558E-05 -8.970680125537E-05 -9.305653236429E-05 -9.391286115644E-05
 -4.130320719074E-03 -4.130315893805E-03 -4.130307555729E-03 -4.130296846311E-03 -4.130284691131E-03 -4.130271792583E-03 -4.130258623522E-03
 -1.543043266752E-03 -1.543080864654E-03 -1.543145970991E-03 -1.543229517205E-03 -1.543324240424E-03 -1.543424686760E-03 -1.543527215469E-03
  0.000000000000E+00  0.000000000000E+00  0.000000000000E+00  0.000000000000E+00  0.000000000000E+00  0.000000000000E+00  0.000000000000E+00
  1.478192398607E-01  1.458615638581E-01  1.423124997332E-01  1.375863120265E-01  1.320797509021E-01  1.261421552109E-01  1.200362497084E-01
 ZONE t = "whisker load points"
 DATAPACKING=block
 zonetype =FELINESEG
 N=           7 , E=           6
 strandid =            3
 solutiontime =   162.50000000000000     
 VARSHARELIST = ([1]=1,[2]=1,[3]=1)
 CONNECTIVITYSHAREZONE =           1
 -1.399023421950E-04 -1.274293483615E-03 -3.237805639422E-03 -5.756624166888E-03 -8.611701001324E-03 -1.163875615766E-02 -1.472827363622E-02
 -1.218247801699E-05 -1.014090271096E-04 -2.590872416078E-04 -4.637546134410E-04 -6.976506439698E-04 -9.469597806176E-04 -1.202127301917E-03
 -1.625022369327E-09 -3.499015014453E-08 -1.297742951752E-07 -2.845244807791E-07 -4.829692032052E-07 -7.059342580198E-07 -9.381788266398E-07
 -6.188492057924E-01 -6.187688870850E-01 -6.186241861330E-01 -6.184320829593E-01 -6.182084567629E-01 -6.179671364327E-01 -6.177186958069E-01
 -6.593894316368E-03 -6.632767524008E-03 -6.700676667303E-03 -6.788242433114E-03 -6.887532664732E-03 -6.992553240954E-03 -7.099497368163E-03
  0.000000000000E+00  0.000000000000E+00 -6.819305738089E-05 -8.126279134580E-05 -8.858740577712E-05 -9.181103669218E-05 -9.257617457842E-05
 -4.183465247221E-03 -4.183461669863E-03 -4.183455583777E-03 -4.183447854438E-03 -4.183439154861E-03 -4.183429973618E-03 -4.183420625191E-03
 -1.492184360609E-03 -1.492222109038E-03 -1.492287466520E-03 -1.492371322448E-03 -1.492466385043E-03 -1.492567182736E-03 -1.492670065876E-03
  0.000000000000E+00  0.000000000000E+00  0.000000000000E+00  0.000000000000E+00  0.000000000000E+00  0.000000000000E+00  0.000000000000E+00
  1.307319892047E-01  1.315206432683E-01  1.328998399931E-01  1.346804503808E-01  1.367021593880E-01  1.388432910798E-01  1.410260550982E-01
 ZONE t = "whisker load points"
 DATAPACKING=block
 zonetype =FELINESEG
 N=           7 , E=           6
 strandid =            3
 solutiontime =   175.00000000000003     
 VARSHARELIST = ([1]=1,[2]=1,[3]=1)
 CONNECTIVITYSHAREZONE =           1
 -1.408468734641E-04 -1.282840033004E-03 -3.259407884618E-03 -5.794860015594E-03 -8.668688650218E-03 -1.171554961391E-02 -1.482523757262E-02
 -2.681977426851E-06 -2.356030797429E-05 -6.298809958148E-05 -1.172211380276E-04 -1.820763906568E-04 -2.533284488300E-04 -3.273375357776E-04
 -1.638539593559E-09 -3.525659349480E-08 -1.307312704824E-07 -2.865799285039E-07 -4.864074926102E-07 -7.109073151195E-07 -9.447392661087E-07
 -6.241143175431E-01 -6.241812217033E-01 -6.243018416589E-01 -6.244620378765E-01 -6.246485124057E-01 -6.248497103513E-01 -6.250568567888E-01
  1.752688809780E-03  1.669150964517E-03  1.507556976497E-03  1.279476340253E-03  1.000694861151E-03  6.899816463752E-04  3.650684669254E-04
  0.000000000000E+00  0.000000000000E+00 -6.921058780928E-05 -8.251750154852E-05 -9.001089194389E-05 -9.335036181033E-05 -9.419614632131E-05
 -4.237340823966E-03 -4.237340375463E-03 -4.237339709504E-03 -4.237338977429E-03 -4.237338260358E-03 -4.237337582643E-03 -4.237336932966E-03
 -1.370606057011E-03 -1.370644624930E-03 -1.370711382999E-03 -1.370797022663E-03 -1.370894097098E-03 -1.370997020980E-03 -1.371102070460E-03
  0.000000000000E+00  0.000000000000E+00  0.000000000000E+00  0.000000000000E+00  0.000000000000E+00  0.000000000000E+00  0.000000000000E+00
  3.442802525873E-02  3.278312328288E-02  2.960280262440E-02  2.511675012062E-02  1.963735772082E-02  1.353494888161E-02  7.158564613803E-03
 ZONE t = "whisker load points"
 DATAPACKING=block
 zonetype =FELINESEG
 N=           7 , E=           6
 strandid =            3
 solutiontime =   187.50000000000003     
 VARSHARELIST = ([1]=1,[2]=1,[3]=1)
 CONNECTIVITYSHAREZONE =           1
 -1.419581141483E-04 -1.293266340275E-03 -3.286526402472E-03 -5.844041673992E-03 -8.743465866456E-03 -1.181788679774E-02 -1.495592312285E-02
  1.126058099694E-05  9.478384772105E-05  2.443304636561E-04  4.405080140005E-04  6.663978100982E-04  9.082915471042E-04  1.156428967467E-03
 -1.672275673839E-09 -3.601321238192E-08 -1.336213201438E-07 -2.930630621596E-07 -4.976070542260E-07 -7.274876324073E-07 -9.669678483475E-07
 -6.243545584737E-01 -6.243118237042E-01 -6.242352952247E-01 -6.241343195874E-01 -6.240174374816E-01 -6.238918451239E-01 -6.237628358812E-01
  2.711622283548E-03  2.634529290766E-03  2.493656556008E-03  2.303460924580E-03  2.077825404403E-03  1.830446465748E-03  1.573531000722E-03
  0.000000000000E+00  0.000000000000E+00 -6.982125908601E-05 -8.322826378760E-05 -9.075476258235E-05 -9.407852837685E-05 -9.487950803267E-05
 -4.283628044759E-03 -4.283624442099E-03 -4.283618036412E-03 -4.283609670599E-03 -4.283600066893E-03 -4.283589801820E-03 -4.283579281024E-03
 -1.315664769978E-03 -1.315703838630E-03 -1.315771474975E-03 -1.315858255550E-03 -1.315956636154E-03 -1.316060954100E-03 -1.316167431008E-03
  0.000000000000E+00  0.000000000000E+00  0.000000000000E+00  0.000000000000E+00  0.000000000000E+00  0.000000000000E+00  0.000000000000E+00
  5.325230728826E-02  5.174119427562E-02  4.897937179504E-02  4.524952441869E-02  4.082322807730E-02  3.596871721996E-02  3.092534480612E-02
 ZONE t = "whisker load points"
 DATAPACKING=block
 zonetype =FELINESEG
 N=           7 , E=           6
 strandid =            3
 solutiontime =   200.00000000000000     
 VARSHARELIST = ([1]=1,[2]=1,[3]=1)
 CONNECTIVITYSHAREZONE =           1
 -1.402092855101E-04 -1.276793627889E-03 -3.243551387697E-03 -5.765906386955E-03 -8.624428082842E-03 -1.165473127333E-02 -1.474735392654E-02
  8.027289327177E-06  6.693296041310E-05  1.711720391728E-04  3.065388011445E-04  4.612077574723E-04  6.259929462329E-04  7.945871272311E-04
 -1.627573982309E-09 -3.500704285518E-08 -1.297668599051E-07 -2.843886265639E-07 -4.825790581106E-07 -7.051897983010E-07 -9.370281680285E-07
 -6.246144881384E-01 -6.246416886310E-01 -6.246905235653E-01 -6.247552715234E-01 -6.248305988785E-01 -6.249118867463E-01 -6.249955981500E-01
  3.713392621411E-03  3.810794314572E-03  3.988107649299E-03  4.224536737803E-03  4.500197893844E-03  4.797617731990E-03  5.103675860356E-03
  0.000000000000E+00  0.000000000000E+00 -6.893021233058E-05 -8.215691223826E-05 -8.959094583489E-05 -9.289102123352E-05 -9.371272926293E-05
 -4.329793673891E-03 -4.329791309238E-03 -4.329787137791E-03 -4.329781729516E-03 -4.329775556203E-03 -4.329768982634E-03 -4.329762258360E-03
 -1.259044583800E-03 -1.259083478116E-03 -1.259150781159E-03 -1.259237097362E-03 -1.259334918216E-03 -1.259438618725E-03 -1.259544453211E-03
  0.000000000000E+00  0.000000000000E+00  0.000000000000E+00  0.000000000000E+00  0.000000000000E+00  0.000000000000E+00  0.000000000000E+00
  7.290737348822E-02  7.481767145262E-02  7.829506264034E-02  8.293132377207E-02  8.833617456366E-02  9.416673399380E-02  1.001656422958E-01
 ZONE t = "whisker load points"
 DATAPACKING=block
 zonetype =FELINESEG
 N=           7 , E=           6
 strandid =            3
 solutiontime =   212.50000000000003     
 VARSHARELIST = ([1]=1,[2]=1,[3]=1)
 CONNECTIVITYSHAREZONE =           1
 -1.423756925438E-04 -1.297152829417E-03 -3.296565832548E-03 -5.862136374221E-03 -8.770830696441E-03 -1.185517591761E-02 -1.500338867320E-02
  1.593327329626E-06  1.187360398091E-05  2.728631989033E-05  4.411071493502E-05  6.047333584880E-05  7.587472656419E-05  9.060761253577E-05
 -1.673995647029E-09 -3.604275319225E-08 -1.337104949407E-07 -2.932278318132E-07 -4.978488609618E-07 -7.278014199436E-07 -9.673483097849E-07
 -6.248567979689E-01 -6.248356618169E-01 -6.247976159987E-01 -6.247471616693E-01 -6.246884704958E-01 -6.246251630506E-01 -6.245599966750E-01
  4.632470224999E-03  4.625949867967E-03  4.616143223235E-03  4.605447233621E-03  4.595331425058E-03  4.586270878587E-03  4.577954689863E-03
  0.000000000000E+00  0.000000000000E+00 -7.008425512759E-05 -8.355402401055E-05 -9.112378437022E-05 -9.447507687905E-05 -9.529291022253E-05
 -4.375016608027E-03 -4.375016603630E-03 -4.375016678023E-03 -4.375016874682E-03 -4.375017190267E-03 -4.375017591055E-03 -4.375018033026E-03
 -1.205615723085E-03 -1.205655767924E-03 -1.205725102573E-03 -1.205814070395E-03 -1.205914937621E-03 -1.206021897181E-03 -1.206131073064E-03
  0.000000000000E+00  0.000000000000E+00  0.000000000000E+00  0.000000000000E+00  0.000000000000E+00  0.000000000000E+00  0.000000000000E+00
  9.093077471778E-02  9.080576228831E-02  9.061863578972E-02  9.041581118908E-02  9.022554499089E-02  9.005664664440E-02  8.990261126314E-02
 ZONE t = "whisker load points"
 DATAPACKING=block
 zonetype =FELINESEG
 N=           7 , E=           6
 strandid =            3
 solutiontime =   225.00000000000003     
 VARSHARELIST = ([1]=1,[2]=1,[3]=1)
 CONNECTIVITYSHAREZONE =           1
 -1.401306368051E-04 -1.276063584020E-03 -3.241667263229E-03 -5.762510096194E-03 -8.619287969148E-03 -1.164772021418E-02 -1.473842182290E-02
  1.344954242982E-05  1.097770383285E-04  2.755905751251E-04  4.855793084291E-04  7.207111540662E-04  9.678204391773E-04  1.218966454916E-03
 -1.633330966269E-09 -3.512468120425E-08 -1.301793949893E-07 -2.852404440146E-07 -4.839482874852E-07 -7.071049754609E-07 -9.394942913285E-07
 -6.244262539970E-01 -6.244534783647E-01 -6.245035336676E-01 -6.245712185481E-01 -6.246512056399E-01 -6.247384175371E-01 -6.248286782585E-01
  1.299955961756E-02  1.286138208552E-02  1.260160309520E-02  1.224396218470E-02  1.181528577736E-02  1.134355734043E-02  1.085324715835E-02