variables="x","y","z","u","v","w","load_fx","load_fy","load_fz","flow_u","flow_v","flow_w","AOA"
 ZONE t = "whisker load points"
 DATAPACKING=block
 zonetype =FELINESEG
 N=           7 , E=           6
 strandid =            3
 solutiontime =   0.0000000000000000     
PASSIVEVARLIST=[4,5,6,7,8,9,10,11,12,13,]
  1.300000000000E+02  1.300000000000E+02  1.300000000000E+02  1.300000000000E+02  1.300000000000E+02  1.300000000000E+02  1.300000000000E+02
  5.300000000000E+02  5.300000000000E+02  5.300000000000E+02  5.300000000000E+02  5.300000000000E+02  5.300000000000E+02  5.300000000000E+02
  1.034400000000E+01  3.103200000000E+01  5.172000000000E+01  7.240800000000E+01  9.309600000000E+01  1.137840000000E+02  1.344720000000E+02
           1           2
           2           3
           3           4
           4           5
           5           6
           6           7
 ZONE t = "whisker load points"
 DATAPACKING=block
 zonetype =FELINESEG
 N=           7 , E=           6
 strandid =            3
 solutiontime =   12.500000000000000     
 VARSHARELIST = ([1]=1,[2]=1,[3]=1)
 CONNECTIVITYSHAREZONE =           1
 -9.476492829209E-08 -8.692204979734E-07 -2.229238077764E-06 -3.996048998673E-06 -6.018698260493E-06 -8.177545737323E-06 -1.038835792313E-05
 -1.077460845828E-06 -8.885895987836E-06 -2.253860719246E-05 -4.007786547870E-05 -5.994879507938E-05 -8.100120399027E-05 -1.024833344712E-04
 -7.635374725426E-14 -1.669873048286E-12 -6.262628235394E-12 -1.378514376961E-11 -2.343038123185E-11 -3.426009170442E-11 -4.554069487404E-11
 -2.702119868826E-04 -2.701597064412E-04 -2.700708168259E-04 -2.699608694421E-04 -2.698413809164E-04 -2.697190674225E-04 -2.695966453236E-04
 -7.262858460825E-04 -7.259091866699E-04 -7.252624638504E-04 -7.244529281928E-04 -7.235626072058E-04 -7.226423632871E-04 -7.217161318969E-04
  0.000000000000E+00  0.000000000000E+00  0.000000000000E+00  0.000000000000E+00  0.000000000000E+00  0.000000000000E+00  0.000000000000E+00
 -3.019786180926E-03 -3.019786312352E-03 -3.019786542035E-03 -3.019786836733E-03 -3.019787170214E-03 -3.019787523223E-03 -3.019787883290E-03
 -2.548646392375E-03 -2.548646554183E-03 -2.548646837208E-03 -2.548647201169E-03 -2.548647613905E-03 -2.548648051478E-03 -2.548648498130E-03
  0.000000000000E+00  0.000000000000E+00  0.000000000000E+00  0.000000000000E+00  0.000000000000E+00  0.000000000000E+00  0.000000000000E+00
  4.016224861914E+01  4.015075710252E+01  4.013089592307E+01  4.010583384338E+01  4.007804733975E+01  4.004913108643E+01  4.001989552896E+01
 ZONE t = "whisker load points"
 DATAPACKING=block
 zonetype =FELINESEG
 N=           7 , E=           6
 strandid =            3
 solutiontime =   25.000000000000000     
 VARSHARELIST = ([1]=1,[2]=1,[3]=1)
 CONNECTIVITYSHAREZONE =           1
 -1.993514091734E-04 -1.835543060184E-03 -4.704871697048E-03 -8.428559456449E-03 -1.268818284956E-02 -1.723226048944E-02 -2.188433351108E-02
 -3.503592792889E-05 -2.855425494516E-04 -7.156655420227E-04 -1.258786470906E-03 -1.865182878710E-03 -2.501024155841E-03 -3.146476985345E-03
 -3.392738473463E-09 -7.429013269359E-08 -2.802425765450E-07 -6.234246389842E-07 -1.070707271017E-06 -1.578794237110E-06 -2.110941810008E-06
 -6.169770084064E-01 -6.163459827454E-01 -6.151883182259E-01 -6.136148501126E-01 -6.117416531475E-01 -6.096874686054E-01 -6.075576267414E-01
 -3.451381523036E-02 -3.412548412574E-02 -3.337103540740E-02 -3.230020253708E-02 -3.098673908487E-02 -2.952141234580E-02 -2.799137005039E-02
  0.000000000000E+00 -6.951949823375E-05 -1.003773510518E-04 -1.205579855048E-04 -1.320301953852E-04 -1.369972868827E-04 -1.378987573009E-04
 -3.112523609048E-03 -3.112498478624E-03 -3.112454226587E-03 -3.112396499479E-03 -3.112330168371E-03 -3.112259187827E-03 -3.112186409839E-03
 -2.528033005020E-03 -2.528070074889E-03 -2.528134914057E-03 -2.528218782417E-03 -2.528314448196E-03 -2.528416299976E-03 -2.528520472079E-03
  0.000000000000E+00  0.000000000000E+00  0.000000000000E+00  0.000000000000E+00  0.000000000000E+00  0.000000000000E+00  0.000000000000E+00
  6.895935372820E-01  6.824919456749E-01  6.685811219598E-01  6.486781033082E-01  6.240765334544E-01  5.964292354071E-01  5.673611005498E-01
 ZONE t = "whisker load points"
 DATAPACKING=block
 zonetype =FELINESEG
 N=           7 , E=           6
 strandid =            3
 solutiontime =   37.500000000000000     
 VARSHARELIST = ([1]=1,[2]=1,[3]=1)
 CONNECTIVITYSHAREZONE =           1
 -8.548056629004E-05 -7.633162869883E-04 -1.908751008159E-03 -3.347164800443E-03 -4.950406672997E-03 -6.631142189565E-03 -8.336890701971E-03
 -7.539102556736E-05 -6.290080882804E-04 -1.609591799540E-03 -2.884135026002E-03 -4.341490238445E-03 -5.895006475787E-03 -7.485024789876E-03
 -9.828741820638E-10 -2.078076480458E-08 -7.644364818927E-08 -1.663115062166E-07 -2.804999022328E-07 -4.080087162170E-07 -5.404355782890E-07
 -6.174965546070E-01 -6.177674624886E-01 -6.182673633419E-01 -6.189464115970E-01 -6.197507783350E-01 -6.206282875982E-01 -6.215363730590E-01
 -3.422702737640E-02 -3.413766456042E-02 -3.396039123643E-02 -3.369917949656E-02 -3.336380275945E-02 -3.297459142148E-02 -3.255835303038E-02
  0.000000000000E+00  0.000000000000E+00  0.000000000000E+00  0.000000000000E+00 -5.198092496059E-05 -5.351411609293E-05 -5.386110281403E-05
 -3.187367061174E-03 -3.187365832274E-03 -3.187364675392E-03 -3.187364103174E-03 -3.187364215608E-03 -3.187364858238E-03 -3.187365783285E-03
 -2.505958046586E-03 -2.505982056301E-03 -2.506023461960E-03 -2.506076256402E-03 -2.506135780795E-03 -2.506198658471E-03 -2.506262719922E-03
  0.000000000000E+00  0.000000000000E+00  0.000000000000E+00  0.000000000000E+00  0.000000000000E+00  0.000000000000E+00  0.000000000000E+00
  6.832516519133E-01  6.811569270116E-01  6.770484816769E-01  6.710700565118E-01  6.634869571260E-01  6.547718029282E-01  6.455117981632E-01
 ZONE t = "whisker load points"
 DATAPACKING=block
 zonetype =FELINESEG
 N=           7 , E=           6
 strandid =            3
 solutiontime =   50.000000000000000     
 VARSHARELIST = ([1]=1,[2]=1,[3]=1)
 CONNECTIVITYSHAREZONE =           1
 -1.849316884041E-04 -1.697949402658E-03 -4.342029134946E-03 -7.762665893707E-03 -1.166587057247E-02 -1.582273554259E-02 -2.007483781226E-02
 -5.816282704578E-05 -4.825954005498E-04 -1.229151135440E-03 -2.193668694419E-03 -3.291451502288E-03 -4.458143160811E-03 -5.650433847099E-03
 -3.094296444747E-09 -6.704078632449E-08 -2.519801198250E-07 -5.588636299012E-07 -9.574361663170E-07 -1.409083957902E-06 -1.881532371734E-06
 -6.178589622239E-01 -6.178000978955E-01 -6.177022367736E-01 -6.175845547836E-01 -6.174617540541E-01 -6.173412925534E-01 -6.172238908526E-01
 -3.394419452642E-02 -3.426148588651E-02 -3.483602209048E-02 -3.559712127857E-02 -3.647909513704E-02 -3.742598242109E-02 -3.839747884884E-02
  0.000000000000E+00 -6.479509491523E-05 -9.345805833225E-05 -1.122748850312E-04 -1.231475699402E-04 -1.281277609376E-04 -1.294386152195E-04
 -3.260357529400E-03 -3.260338514286E-03 -3.260305385632E-03 -3.260262499179E-03 -3.260213502305E-03 -3.260161268297E-03 -3.260107811515E-03
 -2.483113223313E-03 -2.483152819949E-03 -2.483222106909E-03 -2.483311719750E-03 -2.483413923810E-03 -2.483522726072E-03 -2.483634001564E-03
  0.000000000000E+00  0.000000000000E+00  0.000000000000E+00  0.000000000000E+00  0.000000000000E+00  0.000000000000E+00  0.000000000000E+00
  6.771736010313E-01  6.836055332676E-01  6.952471699850E-01  7.106644122657E-01  7.285263916420E-01  7.477030257453E-01  7.673845077470E-01
 ZONE t = "whisker load points"
 DATAPACKING=block
 zonetype =FELINESEG
 N=           7 , E=           6
 strandid =            3
 solutiontime =   62.499999999999993     
 VARSHARELIST = ([1]=1,[2]=1,[3]=1)
 CONNECTIVITYSHAREZONE =           1
 -1.034623280490E-04 -9.314915527154E-04 -2.344367349578E-03 -4.133546928136E-03 -6.140594768772E-03 -8.253514734751E-03 -1.040236877133E-02
 -3.180878736572E-05 -2.586028626263E-04 -6.470679120332E-04 -1.136979027706E-03 -1.683890961004E-03 -2.257576506528E-03 -2.840052859372E-03
 -9.456434080598E-10 -2.002853780382E-08 -7.281757401247E-08 -1.568445979485E-07 -2.623744059930E-07 -3.792334875742E-07 -5.000645101051E-07
 -6.182599325025E-01 -6.182119474664E-01 -6.181281701717E-01 -6.180198654024E-01 -6.178963412838E-01 -6.177648832387E-01 -6.176305021943E-01
 -3.355676263694E-02 -3.361811140431E-02 -3.373356030720E-02 -3.389284284059E-02 -3.408484324055E-02 -3.429766089905E-02 -3.451997173753E-02
  0.000000000000E+00  0.000000000000E+00  0.000000000000E+00  0.000000000000E+00 -6.288759380927E-05 -6.484496703392E-05 -6.527016085582E-05
 -3.333536709997E-03 -3.333526249061E-03 -3.333508430951E-03 -3.333485823048E-03 -3.333460404225E-03 -3.333433599111E-03 -3.333406316673E-03
 -2.459086787423E-03 -2.459108744968E-03 -2.459146239661E-03 -2.459193684183E-03 -2.459246857649E-03 -2.459302798122E-03 -2.459359672270E-03
  0.000000000000E+00  0.000000000000E+00  0.000000000000E+00  0.000000000000E+00  0.000000000000E+00  0.000000000000E+00  0.000000000000E+00
  6.689641587145E-01  6.702464076491E-01  6.726528778983E-01  6.759662581569E-01  6.799542579137E-01  6.843707277793E-01  6.889832611295E-01
 ZONE t = "whisker load points"
 DATAPACKING=block
 zonetype =FELINESEG
 N=           7 , E=           6
 strandid =            3
 solutiontime =   75.000000000000000     
 VARSHARELIST = ([1]=1,[2]=1,[3]=1)
 CONNECTIVITYSHAREZONE =           1
 -1.677978115163E-04 -1.536678300208E-03 -3.921481482606E-03 -6.998237970997E-03 -1.050140151616E-02 -1.422672751964E-02 -1.803458823780E-02
 -3.819386049699E-05 -3.154525178604E-04 -8.005540603710E-04 -1.424694922147E-03 -2.133097101946E-03 -2.884797786927E-03 -3.652517070010E-03
 -2.438705963551E-09 -5.286246511313E-08 -1.978639423887E-07 -4.372018334098E-07 -7.467731473429E-07 -1.096613216019E-06 -1.462068904630E-06
 -6.177098626935E-01 -6.178175163870E-01 -6.180112596891E-01 -6.182691559058E-01 -6.185703011479E-01 -6.188960514535E-01 -6.192318639257E-01
 -2.740417534544E-02 -2.722043736395E-02 -2.690008038376E-02 -2.649292659992E-02 -2.603842045466E-02 -2.556321106518E-02 -2.508175228743E-02
  0.000000000000E+00  0.000000000000E+00 -8.363526366370E-05 -1.002365559566E-04 -1.097569700058E-04 -1.140872585973E-04 -1.152227762285E-04
 -3.487245452044E-03 -3.487230227080E-03 -3.487203753355E-03 -3.487169554970E-03 -3.487130560273E-03 -3.487089050466E-03 -3.487046602951E-03
 -2.416250281262E-03 -2.416288377675E-03 -2.416354780895E-03 -2.416440424072E-03 -2.416537901380E-03 -2.416641535345E-03 -2.416747456222E-03
  0.000000000000E+00  0.000000000000E+00  0.000000000000E+00  0.000000000000E+00  0.000000000000E+00  0.000000000000E+00  0.000000000000E+00
  5.462329071921E-01  5.424587871148E-01  5.358768789613E-01  5.275086788062E-01  5.181657254221E-01  5.083994969906E-01  4.985122747906E-01
 ZONE t = "whisker load points"
 DATAPACKING=block
 zonetype =FELINESEG
 N=           7 , E=           6
 strandid =            3
 solutiontime =   87.500000000000014     
 VARSHARELIST = ([1]=1,[2]=1,[3]=1)
 CONNECTIVITYSHAREZONE =           1
 -1.188218434311E-04 -1.076073998521E-03 -2.721416535911E-03 -4.818924446858E-03 -7.184640273572E-03 -9.684441119121E-03 -1.223154332222E-02
 -4.561399974396E-05 -3.789651156631E-04 -9.666288783046E-04 -1.727835916110E-03 -2.596400643367E-03 -3.521302655294E-03 -4.467517669251E-03
 -1.295656281725E-09 -2.781258081527E-08 -1.025142928726E-07 -2.234472562561E-07 -3.774158125116E-07 -5.495706587188E-07 -7.284617948203E-07
 -6.179875459792E-01 -6.178213059555E-01 -6.175229529678E-01 -6.171283484519E-01 -6.166707208620E-01 -6.161783940031E-01 -6.156724531413E-01
 -2.687383605568E-02 -2.692979607767E-02 -2.703572691904E-02 -2.718442780499E-02 -2.736684474410E-02 -2.757143008910E-02 -2.778610121893E-02
  0.000000000000E+00  0.000000000000E+00  0.000000000000E+00 -6.838192794431E-05 -7.422127118446E-05 -7.671385556560E-05 -7.725961851453E-05
 -3.553250002359E-03 -3.553243139199E-03 -3.553231711625E-03 -3.553217445406E-03 -3.553201605691E-03 -3.553185045637E-03 -3.553168266937E-03
 -2.384263816655E-03 -2.384293319065E-03 -2.384344263163E-03 -2.384409400236E-03 -2.384483026998E-03 -2.384560941014E-03 -2.384640390977E-03
  0.000000000000E+00  0.000000000000E+00  0.000000000000E+00  0.000000000000E+00  0.000000000000E+00  0.000000000000E+00  0.000000000000E+00
  5.353723172815E-01  5.366372023705E-01  5.390192113067E-01  5.423456637624E-01  5.464088478040E-01  5.509545348388E-01  5.557228430881E-01
 ZONE t = "whisker load points"
 DATAPACKING=block
 zonetype =FELINESEG
 N=           7 , E=           6
 strandid =            3
 solutiontime =   100.00000000000000     
 VARSHARELIST = ([1]=1,[2]=1,[3]=1)
 CONNECTIVITYSHAREZONE =           1
 -1.546988853126E-04 -1.413511216801E-03 -3.600661596154E-03 -6.415791503431E-03 -9.615194165143E-03 -1.301334191318E-02 -1.648466727405E-02
 -3.895647889161E-05 -3.224499496550E-04 -8.198483588740E-04 -1.461400139636E-03 -2.190965025048E-03 -2.966083203680E-03 -3.758164234015E-03
 -2.082874784903E-09 -4.505761746772E-08 -1.680748483340E-07 -3.702594456883E-07 -6.308871879041E-07 -9.247465658519E-07 -1.231375247343E-06
 -6.183282130639E-01 -6.185184419361E-01 -6.188607118822E-01 -6.193145704347E-01 -6.198423887522E-01 -6.204116750987E-01 -6.209977960080E-01
 -2.629943802558E-02 -2.632569011435E-02 -2.637550101213E-02 -2.644376756627E-02 -2.652538871712E-02 -2.661538336389E-02 -2.670926315788E-02
  0.000000000000E+00  0.000000000000E+00 -7.678633680801E-05 -9.187901497902E-05 -1.005070028935E-04 -1.044390298198E-04 -1.055045601446E-04
 -3.617570073293E-03 -3.617557390191E-03 -3.617535477719E-03 -3.617507307087E-03 -3.617475300827E-03 -3.617441310435E-03 -3.617406592926E-03
 -2.351334847111E-03 -2.351371712725E-03 -2.351435842970E-03 -2.351518408236E-03 -2.351612251596E-03 -2.351711929081E-03 -2.351813758448E-03
  0.000000000000E+00  0.000000000000E+00  0.000000000000E+00  0.000000000000E+00  0.000000000000E+00  0.000000000000E+00  0.000000000000E+00
  5.235887567843E-01  5.239518102267E-01  5.246559795998E-01  5.256327677240E-01  5.268114353259E-01  5.281195638524E-01  5.294882689315E-01
 ZONE t = "whisker load points"
 DATAPACKING=block
 zonetype =FELINESEG
 N=           7 , E=           6
 strandid =            3
 solutiontime =   112.50000000000001     
 VARSHARELIST = ([1]=1,[2]=1,[3]=1)
 CONNECTIVITYSHAREZONE =           1
 -1.298996133249E-04 -1.180232150589E-03 -2.992755534128E-03 -5.311637794312E-03 -7.934488023847E-03 -1.071133999857E-02 -1.354346470402E-02
 -3.257239051147E-05 -2.682231859566E-04 -6.789197847483E-04 -1.205431291744E-03 -1.801258284315E-03 -2.432191217525E-03 -3.075858644276E-03
 -1.462529790149E-09 -3.133147466278E-08 -1.157300445295E-07 -2.528037177074E-07 -4.278329654836E-07 -6.239215863897E-07 -8.278790785615E-07
 -6.185839236973E-01 -6.184154586357E-01 -6.181127984544E-01 -6.177119918889E-01 -6.172464691748E-01 -6.167449962453E-01 -6.162292712959E-01
 -2.570828539080E-02 -2.576908640361E-02 -2.587739703613E-02 -2.601944969583E-02 -2.618293835366E-02 -2.635779716592E-02 -2.653689715367E-02
  0.000000000000E+00  0.000000000000E+00 -6.335778919737E-05 -7.529301480552E-05 -8.190289240030E-05 -8.476116334846E-05 -8.540079624870E-05
 -3.682535127234E-03 -3.682524811388E-03 -3.682507115068E-03 -3.682484502365E-03 -3.682458932151E-03 -3.682431862489E-03 -3.682404257358E-03
 -2.316914489251E-03 -2.316945862279E-03 -2.317000065274E-03 -2.317069428254E-03 -2.317147888965E-03 -2.317230959182E-03 -2.317315686392E-03
  0.000000000000E+00  0.000000000000E+00  0.000000000000E+00  0.000000000000E+00  0.000000000000E+00  0.000000000000E+00  0.000000000000E+00
  5.115562697768E-01  5.129116541843E-01  5.153301897852E-01  5.185091565002E-01  5.221767507232E-01  5.261088549050E-01  5.301450405551E-01
 ZONE t = "whisker load points"
 DATAPACKING=block
 zonetype =FELINESEG
 N=           7 , E=           6
 strandid =            3
 solutiontime =   125.00000000000000     
 VARSHARELIST = ([1]=1,[2]=1,[3]=1)
 CONNECTIVITYSHAREZONE =           1
 -1.462335554859E-04 -1.333827682242E-03 -3.392901927625E-03 -6.038258731244E-03 -9.040306031496E-03 -1.222570197119E-02 -1.547810019149E-02
 -2.956737163743E-05 -2.453784888369E-04 -6.253564096030E-04 -1.117085797079E-03 -1.677836218595E-03 -2.274777577659E-03 -2.885407517246E-03
 -1.825273771544E-09 -3.939219470062E-08 -1.465138894351E-07 -3.219753760755E-07 -5.475541630246E-07 -8.014428456290E-07 -1.066128070326E-06
 -6.190999353621E-01 -6.192518820832E-01 -6.195268379920E-01 -6.198937289527E-01 -6.203227027092E-01 -6.207870547311E-01 -6.212659342718E-01
 -1.816532497491E-02 -1.811759872549E-02 -1.804067980244E-02 -1.795083241449E-02 -1.785848111391E-02 -1.776790104044E-02 -1.767912365923E-02
  0.000000000000E+00  0.000000000000E+00 -7.199259006572E-05 -8.598308840278E-05 -9.392263915316E-05 -9.750489469717E-05 -9.845032017857E-05
 -3.830576079172E-03 -3.830567690617E-03 -3.830553315033E-03 -3.830534948897E-03 -3.830514183887E-03 -3.830492205306E-03 -3.830469795282E-03
 -2.249038676190E-03 -2.249076168462E-03 -2.249141246483E-03 -2.249224899582E-03 -2.249319867204E-03 -2.249420660444E-03 -2.249523589258E-03
  0.000000000000E+00  0.000000000000E+00  0.000000000000E+00  0.000000000000E+00  0.000000000000E+00  0.000000000000E+00  0.000000000000E+00
  3.607028719161E-01  3.596637644261E-01  3.579727637164E-01  3.559731561630E-01  3.538906801348E-01  3.518262210077E-01  3.497924882453E-01
 ZONE t = "whisker load points"
 DATAPACKING=block
 zonetype =FELINESEG
 N=           7 , E=           6
 strandid =            3
 solutiontime =   137.50000000000003     
 VARSHARELIST = ([1]=1,[2]=1,[3]=1)
 CONNECTIVITYSHAREZONE =           1
 -1.366323514874E-04 -1.243507194019E-03 -3.157526773121E-03 -5.610733621084E-03 -8.389536305899E-03 -1.133436641773E-02 -1.433927277829E-02
 -2.284242760531E-05 -1.883918285807E-04 -4.775498183972E-04 -8.490748943131E-04 -1.270348788573E-03 -1.717100255282E-03 -2.173211116983E-03
 -1.574269317008E-09 -3.385024656897E-08 -1.253788791441E-07 -2.745531732349E-07 -4.655768232433E-07 -6.799990345383E-07 -9.032402670464E-07
 -6.192818242997E-01 -6.191661175038E-01 -6.189587003254E-01 -6.186847512396E-01 -6.183674956892E-01 -6.180265658896E-01 -6.176763982125E-01
 -1.746451417427E-02 -1.757261195190E-02 -1.776884884597E-02 -1.803190474092E-02 -1.834158291408E-02 -1.867893886852E-02 -1.902799455009E-02
  0.000000000000E+00  0.000000000000E+00 -6.671330531564E-05 -7.943009556412E-05 -8.653139903768E-05 -8.964112138015E-05 -9.036813580213E-05
 -3.889180807564E-03 -3.889172201605E-03 -3.889157405009E-03 -3.889138465983E-03 -3.889117024846E-03 -3.889094310110E-03 -3.889071137601E-03
 -2.210621516212E-03 -2.210656349093E-03 -2.210716618195E-03 -2.210793877109E-03 -2.210881396208E-03 -2.210974149082E-03 -2.211068798176E-03
  0.000000000000E+00  0.000000000000E+00  0.000000000000E+00  0.000000000000E+00  0.000000000000E+00  0.000000000000E+00  0.000000000000E+00
  3.466441755125E-01  3.488614520680E-01  3.528874513629E-01  3.582865880522E-01  3.646462879434E-01  3.715797754197E-01  3.787610403411E-01
 ZONE t = "whisker load points"
 DATAPACKING=block
 zonetype =FELINESEG
 N=           7 , E=           6
 strandid =            3
 solutiontime =   150.00000000000000     
 VARSHARELIST = ([1]=1,[2]=1,[3]=1)
 CONNECTIVITYSHAREZONE =           1
 -1.415010697179E-04 -1.289285752909E-03 -3.276780333813E-03 -5.827271555383E-03 -8.719060367149E-03 -1.178561236727E-02 -1.491572690484E-02
 -2.250103689852E-05 -1.857125457330E-04 -4.710309816176E-04 -8.378543998093E-04 -1.253954103921E-03 -1.695307201632E-03 -2.145970311518E-03
 -1.687176861148E-09 -3.632800658448E-08 -1.348115827696E-07 -2.956991489727E-07 -5.021091786526E-07 -7.340950721776E-07 -9.757737218313E-07
 -6.195183725129E-01 -6.196142757330E-01 -6.197863501458E-01 -6.200140823756E-01 -6.202785450023E-01 -6.205635346069E-01 -6.208568169056E-01
 -1.669995792394E-02 -1.662064190608E-02 -1.647686606484E-02 -1.628520537881E-02 -1.606162875214E-02 -1.582028997883E-02 -1.557186924987E-02
  0.000000000000E+00  0.000000000000E+00 -6.937151326477E-05 -8.274456100525E-05 -9.028858421129E-05 -9.365951287047E-05 -9.452031648612E-05
 -3.948149241159E-03 -3.948140337202E-03 -3.948124999861E-03 -3.948105337379E-03 -3.948083047964E-03 -3.948059413014E-03 -3.948035291233E-03
 -2.170726797380E-03 -2.170763173751E-03 -2.170826195320E-03 -2.170907077746E-03 -2.170998786694E-03 -2.171096040307E-03 -2.171195312801E-03
  0.000000000000E+00  0.000000000000E+00  0.000000000000E+00  0.000000000000E+00  0.000000000000E+00  0.000000000000E+00  0.000000000000E+00
  3.312994768089E-01  3.296704169759E-01  3.267197697757E-01  3.227900323689E-01  3.182104889415E-01  3.132721418208E-01  3.081940796043E-01
 ZONE t = "whisker load points"
 DATAPACKING=block
 zonetype =FELINESEG
 N=           7 , E=           6
 strandid =            3
 solutiontime =   162.50000000000000     
 VARSHARELIST = ([1]=1,[2]=1,[3]=1)
 CONNECTIVITYSHAREZONE =           1
 -1.400317292436E-04 -1.275452628642E-03 -3.240711007773E-03 -5.761728281911E-03 -8.619260162694E-03 -1.164889160777E-02 -1.474102494050E-02
 -2.460910014633E-05 -2.038732710263E-04 -5.187213841966E-04 -9.251481633295E-04 -1.387590350795E-03 -1.879064992153E-03 -2.381365689477E-03
 -1.658444886238E-09 -3.571174731175E-08 -1.324795577532E-07 -2.904869112232E-07 -4.931200377703E-07 -7.207986343555E-07 -9.579584826594E-07
 -6.197094565238E-01 -6.196290985769E-01 -6.194843631273E-01 -6.192922556741E-01 -6.190686637760E-01 -6.188274104597E-01 -6.185790550771E-01
 -1.595110256873E-02 -1.599015267425E-02 -1.605852325347E-02 -1.614687115608E-02 -1.624723664654E-02 -1.635354634507E-02 -1.646188764000E-02
  0.000000000000E+00  0.000000000000E+00 -6.857347825547E-05 -8.171665841801E-05 -8.908295858782E-05 -9.232571583895E-05 -9.309651972559E-05
 -4.007892688914E-03 -4.007884950127E-03 -4.007871694614E-03 -4.007854767323E-03 -4.007835633071E-03 -4.007815380909E-03 -4.007794730204E-03
 -2.129472234628E-03 -2.129509170427E-03 -2.129573155361E-03 -2.129655265339E-03 -2.129748357395E-03 -2.129847071114E-03 -2.129947830618E-03
  0.000000000000E+00  0.000000000000E+00  0.000000000000E+00  0.000000000000E+00  0.000000000000E+00  0.000000000000E+00  0.000000000000E+00
  3.163058741051E-01  3.171235338562E-01  3.185577591236E-01  3.204147248876E-01  3.225285489129E-01  3.247716375119E-01  3.270607994684E-01
 ZONE t = "whisker load points"
 DATAPACKING=block
 zonetype =FELINESEG
 N=           7 , E=           6
 strandid =            3
 solutiontime =   175.00000000000003     
 VARSHARELIST = ([1]=1,[2]=1,[3]=1)
 CONNECTIVITYSHAREZONE =           1
 -1.413363929514E-04 -1.287348602104E-03 -3.270966312483E-03 -5.815568825114E-03 -8.699865422360E-03 -1.175789319965E-02 -1.487901257461E-02
 -1.605407067476E-05 -1.340672766151E-04 -3.435463775650E-04 -6.166483156971E-04 -9.299520793089E-04 -1.264833360259E-03 -1.608072886358E-03
 -1.666740769837E-09 -3.587326077514E-08 -1.330664301217E-07 -2.917795315590E-07 -4.953384497715E-07 -7.240752777035E-07 -9.623448524086E-07
 -6.255709880238E-01 -6.256518142481E-01 -6.257997954406E-01 -6.259991451942E-01 -6.262339755024E-01 -6.264894192202E-01 -6.267534577178E-01
 -7.637515969902E-03 -7.709266138894E-03 -7.849606960258E-03 -8.049684020164E-03 -8.296130059799E-03 -8.572158528355E-03 -8.861456210047E-03
  0.000000000000E+00  0.000000000000E+00 -6.972212978254E-05 -8.313964951538E-05 -9.070334753103E-05 -9.408238547280E-05 -9.494781386911E-05
 -4.147456319831E-03 -4.147451343720E-03 -4.147442900684E-03 -4.147432212068E-03 -4.147420217445E-03 -4.147407587005E-03 -4.147394741439E-03
 -2.038597864790E-03 -2.038636473411E-03 -2.038703340921E-03 -2.038789153520E-03 -2.038886451551E-03 -2.038989632245E-03 -2.039094954269E-03
  0.000000000000E+00  0.000000000000E+00  0.000000000000E+00  0.000000000000E+00  0.000000000000E+00  0.000000000000E+00  0.000000000000E+00
  1.498201563143E-01  1.512098697442E-01  1.539296547307E-01  1.578080379016E-01  1.625849980144E-01  1.679336030700E-01  1.735361852058E-01
 ZONE t = "whisker load points"
 DATAPACKING=block
 zonetype =FELINESEG
 N=           7 , E=           6
 strandid =            3
 solutiontime =   187.50000000000003     
 VARSHARELIST = ([1]=1,[2]=1,[3]=1)
 CONNECTIVITYSHAREZONE =           1
 -1.422094750258E-04 -1.295542323289E-03 -3.292282240093E-03 -5.854234242003E-03 -8.758663399309E-03 -1.183837353332E-02 -1.498179879539E-02
 -3.064523811605E-06 -2.381898541428E-05 -5.726418116403E-05 -9.711361676285E-05 -1.396013700618E-04 -1.828047837437E-04 -2.259828310744E-04
 -1.670323223914E-09 -3.596062671960E-08 -1.333874159045E-07 -2.924845490202E-07 -4.965402535697E-07 -7.258382381397E-07 -9.646934058498E-07
 -6.256786923998E-01 -6.256519173524E-01 -6.256045855194E-01 -6.255430784627E-01 -6.254730702139E-01 -6.253989074938E-01 -6.253233297917E-01
 -6.738826656801E-03 -6.814701799700E-03 -6.953463785764E-03 -7.140987683618E-03 -7.363650179755E-03 -7.607929206820E-03 -7.861708672542E-03
  0.000000000000E+00  0.000000000000E+00 -7.008787051121E-05 -8.355139039642E-05 -9.111521743608E-05 -9.446236898540E-05 -9.527798857839E-05
 -4.201783353803E-03 -4.201775458569E-03 -4.201761706699E-03 -4.201743959457E-03 -4.201723749133E-03 -4.201702256079E-03 -4.201680286034E-03
 -1.990826795050E-03 -1.990865225324E-03 -1.990931741082E-03 -1.991017063677E-03 -1.991113773412E-03 -1.991216307187E-03 -1.991320956752E-03
  0.000000000000E+00  0.000000000000E+00  0.000000000000E+00  0.000000000000E+00  0.000000000000E+00  0.000000000000E+00  0.000000000000E+00
  1.321486831691E-01  1.336440043329E-01  1.363787500812E-01  1.400748110030E-01  1.444639913778E-01  1.492801556510E-01  1.542848908523E-01
 ZONE t = "whisker load points"
 DATAPACKING=block
 zonetype =FELINESEG
 N=           7 , E=           6
 strandid =            3
 solutiontime =   200.00000000000000     
 VARSHARELIST = ([1]=1,[2]=1,[3]=1)
 CONNECTIVITYSHAREZONE =           1
 -1.404925051835E-04 -1.279377549900E-03 -3.250125631988E-03 -5.777608908692E-03 -8.641952386417E-03 -1.167843492653E-02 -1.477736866512E-02
 -5.761875123702E-06 -4.708361535496E-05 -1.184341206327E-04 -2.092071785503E-04 -3.113674508462E-04 -4.191926411735E-04 -5.290422459425E-04
 -1.632053558001E-09 -3.510044098285E-08 -1.301026848939E-07 -2.851075333501E-07 -4.837776438938E-07 -7.069193689397E-07 -9.393070058912E-07
 -6.257998981365E-01 -6.258092047155E-01 -6.258254607353E-01 -6.258467677600E-01 -6.258714542151E-01 -6.258981194772E-01 -6.259256337506E-01
 -5.798322826783E-03 -5.707495361887E-03 -5.542191370603E-03 -5.321796260637E-03 -5.064854619391E-03 -4.787669052696E-03 -4.502464067496E-03
  0.000000000000E+00  0.000000000000E+00 -6.919419084726E-05 -8.246289946675E-05 -8.991375540016E-05 -9.321366259221E-05 -9.402576362547E-05
 -4.256372938008E-03 -4.256366257159E-03 -4.256354690689E-03 -4.256339830791E-03 -4.256322964873E-03 -4.256305067625E-03 -4.256286793991E-03
 -1.941626073036E-03 -1.941664611261E-03 -1.941731297850E-03 -1.941816818882E-03 -1.941913734022E-03 -1.942016471313E-03 -1.942121321513E-03
  0.000000000000E+00  0.000000000000E+00  0.000000000000E+00  0.000000000000E+00  0.000000000000E+00  0.000000000000E+00  0.000000000000E+00
  1.136655985477E-01  1.118817416227E-01  1.086355557456E-01  1.043081068400E-01  9.926386350742E-02  9.382311677604E-02  8.822595517881E-02
 ZONE t = "whisker load points"
 DATAPACKING=block
 zonetype =FELINESEG
 N=           7 , E=           6
 strandid =            3
 solutiontime =   212.50000000000003     
 VARSHARELIST = ([1]=1,[2]=1,[3]=1)
 CONNECTIVITYSHAREZONE =           1
 -1.425833626145E-04 -1.299034419860E-03 -3.301326114169E-03 -5.870568032050E-03 -8.783404459373E-03 -1.187212737874E-02 -1.502480107832E-02
 -1.173995950072E-05 -9.823816691337E-05 -2.521050910712E-04 -4.529853135495E-04 -6.835945062689E-04 -9.301433196012E-04 -1.182867191729E-03
 -1.687901552009E-09 -3.634842020584E-08 -1.348711772482E-07 -2.958168513329E-07 -5.023007748354E-07 -7.343699191561E-07 -9.761342925636E-07
 -6.259168914166E-01 -6.258961675680E-01 -6.258584665087E-01 -6.258079959153E-01 -6.257488085574E-01 -6.256845855999E-01 -6.256182690300E-01
 -4.939748307362E-03 -4.945843697546E-03 -4.954906782251E-03 -4.964655493145E-03 -4.973703061929E-03 -4.981634037494E-03 -4.988798339279E-03
  0.000000000000E+00  0.000000000000E+00 -7.034349493787E-05 -8.386394522607E-05 -9.146240813527E-05 -9.482648305708E-05 -9.564742898074E-05
 -4.309493768562E-03 -4.309489041899E-03 -4.309480997274E-03 -4.309470791025E-03 -4.309459315843E-03 -4.309447214539E-03 -4.309434897203E-03
 -1.895523768540E-03 -1.895563811307E-03 -1.895633169803E-03 -1.895722191237E-03 -1.895823138320E-03 -1.895930195899E-03 -1.896039478816E-03
  0.000000000000E+00  0.000000000000E+00  0.000000000000E+00  0.000000000000E+00  0.000000000000E+00  0.000000000000E+00  0.000000000000E+00
  9.680291651168E-02  9.692567588834E-02  9.710929418475E-02  9.730836852552E-02  9.749507904894E-02  9.766070354436E-02  9.781164555613E-02
 ZONE t = "whisker load points"
 DATAPACKING=block
 zonetype =FELINESEG
 N=           7 , E=           6
 strandid =            3
 solutiontime =   225.00000000000003     
 VARSHARELIST = ([1]=1,[2]=1,[3]=1)
 CONNECTIVITYSHAREZONE =           1
 -1.403868709564E-04 -1.278401608565E-03 -3.247616278015E-03 -5.773099949310E-03 -8.635145863125E-03 -1.166916887051E-02 -1.476557929082E-02
  3.274285181349E-07  1.196356251430E-06 -3.936904558455E-07 -6.212992830134E-06 -1.638184987048E-05 -2.980215401304E-05 -4.484279903161E-05
 -1.627240342333E-09 -3.500016006664E-08 -1.297303456653E-07 -2.842911738640E-07 -4.823927954527E-07 -7.048966666105E-07 -9.366201550720E-07
 -6.254984490852E-01 -6.255267532899E-01 -6.255788719873E-01 -6.256494546601E-01 -6.257329733019E-01 -6.258241150567E-01 -6.259184825368E-01
  4.147018212968E-03  4.006093131010E-03  3.740304770800E-03  3.373231005829E-03  2.932113871100E-03  2.445863128870E-03  1.940046786506E-03