variables="x","y","z","u","v","w","load_fx","load_fy","load_fz","flow_u","flow_v","flow_w","AOA"
 ZONE t = "whisker load points"
 DATAPACKING=block
 zonetype =FELINESEG
 N=           7 , E=           6
 strandid =            3
 solutiontime =   0.0000000000000000     
PASSIVEVARLIST=[4,5,6,7,8,9,10,11,12,13,]
  1.700000000000E+02  1.700000000000E+02  1.700000000000E+02  1.700000000000E+02  1.700000000000E+02  1.700000000000E+02  1.700000000000E+02
  5.700000000000E+02  5.700000000000E+02  5.700000000000E+02  5.700000000000E+02  5.700000000000E+02  5.700000000000E+02  5.700000000000E+02
  1.034400000000E+01  3.103200000000E+01  5.172000000000E+01  7.240800000000E+01  9.309600000000E+01  1.137840000000E+02  1.344720000000E+02
           1           2
           2           3
           3           4
           4           5
           5           6
           6           7
 ZONE t = "whisker load points"
 DATAPACKING=block
 zonetype =FELINESEG
 N=           7 , E=           6
 strandid =            3
 solutiontime =   12.500000000000000     
 VARSHARELIST = ([1]=1,[2]=1,[3]=1)
 CONNECTIVITYSHAREZONE =           1
 -5.818620833913E-08 -5.337107140143E-07 -1.368773145679E-06 -2.453605716267E-06 -3.695520204589E-06 -5.021057353742E-06 -6.378498631735E-06
 -4.098187436291E-07 -3.379893449639E-06 -8.573107234577E-06 -1.524487205796E-05 -2.280374530273E-05 -3.081216175455E-05 -3.898409462054E-05
 -1.121239309979E-14 -2.453767393988E-13 -9.204725261263E-13 -2.026669178340E-12 -3.445539593157E-12 -5.039068920306E-12 -6.699151140047E-12
 -1.659399107979E-04 -1.659185342119E-04 -1.658822020360E-04 -1.658372797131E-04 -1.657884729253E-04 -1.657385163300E-04 -1.656885041244E-04
 -2.759936534993E-04 -2.758936949533E-04 -2.757220626628E-04 -2.755072014434E-04 -2.752708559417E-04 -2.750264968439E-04 -2.747804447176E-04
  0.000000000000E+00  0.000000000000E+00  0.000000000000E+00  0.000000000000E+00  0.000000000000E+00  0.000000000000E+00  0.000000000000E+00
 -2.764415702294E-03 -2.764415755411E-03 -2.764415848261E-03 -2.764415967452E-03 -2.764416102393E-03 -2.764416245284E-03 -2.764416391056E-03
 -1.247971084573E-03 -1.247971116607E-03 -1.247971172687E-03 -1.247971244963E-03 -1.247971327094E-03 -1.247971414295E-03 -1.247971503369E-03
  0.000000000000E+00  0.000000000000E+00  0.000000000000E+00  0.000000000000E+00  0.000000000000E+00  0.000000000000E+00  0.000000000000E+00
  2.429548012042E+01  2.428873951171E+01  2.427709851013E+01  2.426242376862E+01  2.424617081419E+01  2.422927332413E+01  2.421220253133E+01
 ZONE t = "whisker load points"
 DATAPACKING=block
 zonetype =FELINESEG
 N=           7 , E=           6
 strandid =            3
 solutiontime =   25.000000000000000     
 VARSHARELIST = ([1]=1,[2]=1,[3]=1)
 CONNECTIVITYSHAREZONE =           1
 -1.981472266273E-04 -1.824476223613E-03 -4.676549340216E-03 -8.377888736022E-03 -1.261198687886E-02 -1.712886196877E-02 -2.175309851881E-02
 -1.666675676094E-05 -1.359307524932E-04 -3.409036969794E-04 -5.999529639030E-04 -8.893888965525E-04 -1.193025523805E-03 -1.501323055208E-03
 -3.290482028859E-09 -7.210046611911E-08 -2.721529712694E-07 -6.058096863552E-07 -1.041011490769E-06 -1.535633413266E-06 -2.053807812721E-06
 -6.129241405676E-01 -6.123242555935E-01 -6.112262251112E-01 -6.097364501559E-01 -6.079650437747E-01 -6.060237486299E-01 -6.040113264963E-01
 -1.613500788157E-02 -1.596647185978E-02 -1.563658886613E-02 -1.516581757182E-02 -1.458624382442E-02 -1.393824180593E-02 -1.326093021734E-02
  0.000000000000E+00 -6.820427491766E-05 -9.851935654515E-05 -1.183835408571E-04 -1.297138414698E-04 -1.346591523760E-04 -1.356066790489E-04
 -2.800235182070E-03 -2.800226105116E-03 -2.800210105652E-03 -2.800189206418E-03 -2.800165164482E-03 -2.800139416698E-03 -2.800113006665E-03
 -1.217397238966E-03 -1.217429841360E-03 -1.217486986242E-03 -1.217561098337E-03 -1.217645829644E-03 -1.217736184266E-03 -1.217828669334E-03
  0.000000000000E+00  0.000000000000E+00  0.000000000000E+00  0.000000000000E+00  0.000000000000E+00  0.000000000000E+00  0.000000000000E+00
  3.235143271587E-01  3.204404342248E-01  3.143674873508E-01  3.056252642512E-01  2.947750459135E-01  2.825526931346E-01  2.696887908174E-01
 ZONE t = "whisker load points"
 DATAPACKING=block
 zonetype =FELINESEG
 N=           7 , E=           6
 strandid =            3
 solutiontime =   37.500000000000000     
 VARSHARELIST = ([1]=1,[2]=1,[3]=1)
 CONNECTIVITYSHAREZONE =           1
 -8.486364540679E-05 -7.577939323347E-04 -1.894913371274E-03 -3.322855729302E-03 -4.914400079452E-03 -6.582853905201E-03 -8.276128019087E-03
 -3.527895545989E-05 -2.944781032725E-04 -7.538402525511E-04 -1.351200212016E-03 -2.034493553072E-03 -2.763047169542E-03 -3.508806272947E-03
 -6.509852259624E-10 -1.399258027835E-08 -5.076067554315E-08 -1.090944124854E-07 -1.822327677908E-07 -2.631871198765E-07 -3.468898456067E-07
 -6.132582328487E-01 -6.135338183403E-01 -6.140429793045E-01 -6.147356786542E-01 -6.155576502880E-01 -6.164556710960E-01 -6.173857387928E-01
 -1.560363840170E-02 -1.556502953747E-02 -1.548706389716E-02 -1.537020066074E-02 -1.521823067508E-02 -1.504047647376E-02 -1.484970587195E-02
  0.000000000000E+00  0.000000000000E+00  0.000000000000E+00  0.000000000000E+00  0.000000000000E+00  0.000000000000E+00  0.000000000000E+00
 -2.849139868656E-03 -2.849140430872E-03 -2.849141807063E-03 -2.849143944410E-03 -2.849146675635E-03 -2.849149783141E-03 -2.849153064030E-03
 -1.179407793998E-03 -1.179422960257E-03 -1.179448733971E-03 -1.179481239503E-03 -1.179517588781E-03 -1.179555778297E-03 -1.179594579540E-03
  0.000000000000E+00  0.000000000000E+00  0.000000000000E+00  0.000000000000E+00  0.000000000000E+00  0.000000000000E+00  0.000000000000E+00
  3.126610764657E-01  3.117449429875E-01  3.099214375938E-01  3.072292482321E-01  3.037765379124E-01  2.997808664456E-01  2.955220097256E-01
 ZONE t = "whisker load points"
 DATAPACKING=block
 zonetype =FELINESEG
 N=           7 , E=           6
 strandid =            3
 solutiontime =   50.000000000000000     
 VARSHARELIST = ([1]=1,[2]=1,[3]=1)
 CONNECTIVITYSHAREZONE =           1
 -1.836275654892E-04 -1.685978709744E-03 -4.311424442775E-03 -7.707961921040E-03 -1.158367453541E-02 -1.571126632955E-02 -1.993342830170E-02
 -2.595755499639E-05 -2.153753622679E-04 -5.485354592847E-04 -9.789301975071E-04 -1.468748029175E-03 -1.989271845997E-03 -2.521191095059E-03
 -2.866898060960E-09 -6.221882642416E-08 -2.338370821025E-07 -5.186724988633E-07 -8.887224002456E-07 -1.308154070650E-06 -1.746952897173E-06
 -6.134457253337E-01 -6.133684503611E-01 -6.132370656162E-01 -6.130747170356E-01 -6.128998646215E-01 -6.127232565488E-01 -6.125480564438E-01
 -1.509083380758E-02 -1.524951079253E-02 -1.553621620803E-02 -1.591524304410E-02 -1.635368552532E-02 -1.682380215937E-02 -1.730583397178E-02
  0.000000000000E+00 -6.308797321490E-05 -9.097369589075E-05 -1.092575842233E-04 -1.197956190575E-04 -1.245909615995E-04 -1.258124400640E-04
 -2.897505496772E-03 -2.897499559237E-03 -2.897489226722E-03 -2.897475847054E-03 -2.897460553316E-03 -2.897444242434E-03 -2.897427546593E-03
 -1.142137163675E-03 -1.142168965183E-03 -1.142224554181E-03 -1.142296465847E-03 -1.142378514671E-03 -1.142465889202E-03 -1.142555263196E-03
  0.000000000000E+00  0.000000000000E+00  0.000000000000E+00  0.000000000000E+00  0.000000000000E+00  0.000000000000E+00  0.000000000000E+00
  3.022667400848E-01  3.054918065070E-01  3.113173230817E-01  3.190174917162E-01  3.279241147472E-01  3.374752989589E-01  3.472725294313E-01
 ZONE t = "whisker load points"
 DATAPACKING=block
 zonetype =FELINESEG
 N=           7 , E=           6
 strandid =            3
 solutiontime =   62.499999999999993     
 VARSHARELIST = ([1]=1,[2]=1,[3]=1)
 CONNECTIVITYSHAREZONE =           1
 -1.026231080727E-04 -9.239064611669E-04 -2.325215745041E-03 -4.099683367442E-03 -6.090168667883E-03 -8.185609788716E-03 -1.031666600254E-02
 -1.296280542271E-05 -1.050598901179E-04 -2.621391784005E-04 -4.594354017240E-04 -6.789369139945E-04 -9.086337106972E-04 -1.141565576709E-03
 -8.765261216297E-10 -1.856088465420E-08 -6.746602646296E-08 -1.453400704304E-07 -2.431859912166E-07 -3.515707475749E-07 -4.636546894184E-07
 -6.136750743547E-01 -6.136240832134E-01 -6.135345054666E-01 -6.134180342886E-01 -6.132845116406E-01 -6.131418525937E-01 -6.129957049609E-01
 -1.452274403339E-02 -1.455659060688E-02 -1.461958092333E-02 -1.470566640800E-02 -1.480865743552E-02 -1.492223012855E-02 -1.504055820472E-02
  0.000000000000E+00  0.000000000000E+00  0.000000000000E+00  0.000000000000E+00 -6.114850902611E-05 -6.304694111894E-05 -6.345444375464E-05
 -2.945673749797E-03 -2.945670442018E-03 -2.945664796757E-03 -2.945657614579E-03 -2.945649520276E-03 -2.945640970415E-03 -2.945632261243E-03
 -1.103965587187E-03 -1.103983171301E-03 -1.104013174274E-03 -1.104051157354E-03 -1.104093753578E-03 -1.104138587600E-03 -1.104184179609E-03
  0.000000000000E+00  0.000000000000E+00  0.000000000000E+00  0.000000000000E+00  0.000000000000E+00  0.000000000000E+00  0.000000000000E+00
  2.907510565642E-01  2.914546245676E-01  2.927617918770E-01  2.945460271833E-01  2.966787952757E-01  2.990296116303E-01  3.014788963323E-01
 ZONE t = "whisker load points"
 DATAPACKING=block
 zonetype =FELINESEG
 N=           7 , E=           6
 strandid =            3
 solutiontime =   75.000000000000000     
 VARSHARELIST = ([1]=1,[2]=1,[3]=1)
 CONNECTIVITYSHAREZONE =           1
 -1.661307525655E-04 -1.521411036983E-03 -3.882518318625E-03 -6.928699424356E-03 -1.039704517253E-02 -1.408534085082E-02 -1.785534792604E-02
 -1.494510427645E-05 -1.237356336719E-04 -3.146992806335E-04 -5.611500866159E-04 -8.415873940600E-04 -1.139698566956E-03 -1.444441563510E-03
 -2.310189126976E-09 -5.008790415818E-08 -1.874750166173E-07 -4.142985939984E-07 -7.077544321972E-07 -1.039437025259E-06 -1.385947172693E-06
 -6.114988627284E-01 -6.116215149976E-01 -6.118417119163E-01 -6.121336407314E-01 -6.124732146005E-01 -6.128394883459E-01 -6.132165293417E-01
 -9.922646209324E-03 -9.826227599030E-03 -9.659648172681E-03 -9.449817532884E-03 -9.217497747791E-03 -8.976079349989E-03 -8.732276149096E-03
  0.000000000000E+00  0.000000000000E+00 -8.136101563838E-05 -9.753049359777E-05 -1.068167113176E-04 -1.110544966101E-04 -1.121827465342E-04
 -2.932808450808E-03 -2.932805367090E-03 -2.932800025063E-03 -2.932793134473E-03 -2.932785284928E-03 -2.932776934675E-03 -2.932768399306E-03
 -1.097029971137E-03 -1.097059065314E-03 -1.097109757850E-03 -1.097175159518E-03 -1.097249625064E-03 -1.097328813392E-03 -1.097409757253E-03
  0.000000000000E+00  0.000000000000E+00  0.000000000000E+00  0.000000000000E+00  0.000000000000E+00  0.000000000000E+00  0.000000000000E+00
  1.992083790789E-01  1.972298127666E-01  1.938109054987E-01  1.895035629291E-01  1.847347815580E-01  1.797813017726E-01  1.747832735917E-01
 ZONE t = "whisker load points"
 DATAPACKING=block
 zonetype =FELINESEG
 N=           7 , E=           6
 strandid =            3
 solutiontime =   87.500000000000014     
 VARSHARELIST = ([1]=1,[2]=1,[3]=1)
 CONNECTIVITYSHAREZONE =           1
 -1.176251776437E-04 -1.065245116795E-03 -2.694045694561E-03 -4.770480015248E-03 -7.112439047171E-03 -9.587143978678E-03 -1.210867896142E-02
 -1.575445366887E-05 -1.309227905586E-04 -3.340463467893E-04 -5.973025292190E-04 -8.978573850033E-04 -1.218047504536E-03 -1.545685041353E-03
 -1.150332193289E-09 -2.464982283631E-08 -9.058767197961E-08 -1.970165130894E-07 -3.322101606164E-07 -4.831381493846E-07 -6.398424071616E-07
 -6.116048101765E-01 -6.114423725066E-01 -6.111504584706E-01 -6.107637462432E-01 -6.103145723492E-01 -6.098307708938E-01 -6.093332911579E-01
 -9.311334724302E-03 -9.384828958290E-03 -9.520183403912E-03 -9.704369217503E-03 -9.924023469311E-03 -1.016544480381E-02 -1.041625551685E-02
  0.000000000000E+00  0.000000000000E+00  0.000000000000E+00 -6.606886656578E-05 -7.169722800376E-05 -7.409404360965E-05 -7.461304637654E-05
 -2.972620889370E-03 -2.972619773032E-03 -2.972617964437E-03 -2.972615750546E-03 -2.972613330872E-03 -2.972610829320E-03 -2.972608309970E-03
 -1.056796715165E-03 -1.056817434063E-03 -1.056853066104E-03 -1.056898507356E-03 -1.056949773636E-03 -1.057003956093E-03 -1.057059169601E-03
  0.000000000000E+00  0.000000000000E+00  0.000000000000E+00  0.000000000000E+00  0.000000000000E+00  0.000000000000E+00  0.000000000000E+00
  1.868837868858E-01  1.884113268435E-01  1.912245562033E-01  1.950538837499E-01  1.996233470188E-01  2.046504792998E-01  2.098802614262E-01
 ZONE t = "whisker load points"
 DATAPACKING=block
 zonetype =FELINESEG
 N=           7 , E=           6
 strandid =            3
 solutiontime =   100.00000000000000     
 VARSHARELIST = ([1]=1,[2]=1,[3]=1)
 CONNECTIVITYSHAREZONE =           1
 -1.530126289203E-04 -1.398090613805E-03 -3.561353835761E-03 -6.345710573941E-03 -9.510114784172E-03 -1.287107250907E-02 -1.630439834428E-02
 -1.243165893101E-05 -1.028412982312E-04 -2.613790743983E-04 -4.657941275656E-04 -6.982196661560E-04 -9.451538769863E-04 -1.197499705601E-03
 -1.949062142335E-09 -4.216030450045E-08 -1.571999617496E-07 -3.462401739544E-07 -5.899089276298E-07 -8.646374100792E-07 -1.151294057748E-06
 -6.117739028808E-01 -6.119541683807E-01 -6.122781943660E-01 -6.127075783624E-01 -6.132066649235E-01 -6.137447437726E-01 -6.142986043238E-01
 -8.656870976014E-03 -8.628321909085E-03 -8.577780801326E-03 -8.511511293691E-03 -8.435310003654E-03 -8.353977245919E-03 -8.270791108764E-03
  0.000000000000E+00  0.000000000000E+00 -7.449208522544E-05 -8.912760294802E-05 -9.748997139778E-05 -1.012960589149E-04 -1.023214039199E-04
 -3.010797463123E-03 -3.010795226170E-03 -3.010791371129E-03 -3.010786416886E-03 -3.010780788476E-03 -3.010774811611E-03 -3.010768707616E-03
 -1.015681276625E-03 -1.015708679173E-03 -1.015756294964E-03 -1.015817583311E-03 -1.015887238093E-03 -1.015961220402E-03 -1.016036796893E-03
  0.000000000000E+00  0.000000000000E+00  0.000000000000E+00  0.000000000000E+00  0.000000000000E+00  0.000000000000E+00  0.000000000000E+00
  1.736809491725E-01  1.730562698291E-01  1.719499309087E-01  1.704998388059E-01  1.688334993941E-01  1.670565204088E-01  1.652413747632E-01
 ZONE t = "whisker load points"
 DATAPACKING=block
 zonetype =FELINESEG
 N=           7 , E=           6
 strandid =            3
 solutiontime =   112.50000000000001     
 VARSHARELIST = ([1]=1,[2]=1,[3]=1)
 CONNECTIVITYSHAREZONE =           1
 -1.285147461615E-04 -1.167658489211E-03 -2.960890502971E-03 -5.255111445708E-03 -7.850085410632E-03 -1.059743722844E-02 -1.339948123038E-02
 -1.003711181102E-05 -8.263761970767E-05 -2.091487414249E-04 -3.713277451490E-04 -5.548599899187E-04 -7.492094242969E-04 -9.474780985478E-04
 -1.363720469613E-09 -2.931478836144E-08 -1.082705005086E-07 -2.365040482466E-07 -4.002414584400E-07 -5.836785674862E-07 -7.744732334628E-07
 -6.118556160770E-01 -6.116882232573E-01 -6.113874755147E-01 -6.109892051571E-01 -6.105266444819E-01 -6.100283815798E-01 -6.095159689503E-01
 -8.005477710506E-03 -8.063479693675E-03 -8.166788835287E-03 -8.302361606863E-03 -8.458529028800E-03 -8.625694423237E-03 -8.796993728244E-03
  0.000000000000E+00  0.000000000000E+00 -6.147485116286E-05 -7.305262041230E-05 -7.946240379428E-05 -8.223142756382E-05 -8.284741946177E-05
 -3.048603327745E-03 -3.048601670685E-03 -3.048598838090E-03 -3.048595221076E-03 -3.048591131716E-03 -3.048586802884E-03 -3.048582388799E-03
 -9.731729511692E-04 -9.731960832551E-04 -9.732360060652E-04 -9.732870838881E-04 -9.733448584173E-04 -9.734060261818E-04 -9.734684123343E-04
  0.000000000000E+00  0.000000000000E+00  0.000000000000E+00  0.000000000000E+00  0.000000000000E+00  0.000000000000E+00  0.000000000000E+00
  1.605729688423E-01  1.617822778441E-01  1.639386186442E-01  1.667727090364E-01  1.700431291265E-01  1.735504527719E-01  1.771512070897E-01
 ZONE t = "whisker load points"
 DATAPACKING=block
 zonetype =FELINESEG
 N=           7 , E=           6
 strandid =            3
 solutiontime =   125.00000000000000     
 VARSHARELIST = ([1]=1,[2]=1,[3]=1)
 CONNECTIVITYSHAREZONE =           1
 -1.441941929063E-04 -1.315184986021E-03 -3.345394503595E-03 -5.953578874583E-03 -8.913361109069E-03 -1.205385303316E-02 -1.526037333392E-02
 -7.299665723221E-06 -6.104227123315E-05 -1.566186375068E-04 -2.814559756680E-04 -4.249043660402E-04 -5.784202747002E-04 -7.358801188315E-04
 -1.722344280159E-09 -3.714511712320E-08 -1.380747046038E-07 -3.033170609519E-07 -5.156908282855E-07 -7.546659561757E-07 -1.003772974605E-06
 -6.110192318370E-01 -6.111708586188E-01 -6.114445039117E-01 -6.118086161698E-01 -6.122333205055E-01 -6.126923002497E-01 -6.131652708759E-01
 -3.283896185414E-03 -3.235682331857E-03 -3.154305417603E-03 -3.053376395688E-03 -2.942909321702E-03 -2.828881410085E-03 -2.714022721041E-03
  0.000000000000E+00  0.000000000000E+00 -6.969639998769E-05 -8.323819264470E-05 -9.092293657725E-05 -9.439074462262E-05 -9.530719944623E-05
 -3.029260339482E-03 -3.029260504449E-03 -3.029260843110E-03 -3.029261323018E-03 -3.029261906409E-03 -3.029262553731E-03 -3.029263229901E-03
 -9.743048241036E-04 -9.743306835753E-04 -9.743755198109E-04 -9.744331226125E-04 -9.744984928582E-04 -9.745678563156E-04 -9.746386797507E-04
  0.000000000000E+00  0.000000000000E+00  0.000000000000E+00  0.000000000000E+00  0.000000000000E+00  0.000000000000E+00  0.000000000000E+00
  6.590547389544E-02  6.492120554347E-02  6.325923831915E-02  6.119761043203E-02  5.894152378826E-02  5.661418065819E-02  5.427255269836E-02
 ZONE t = "whisker load points"
 DATAPACKING=block
 zonetype =FELINESEG
 N=           7 , E=           6
 strandid =            3
 solutiontime =   137.50000000000003     
 VARSHARELIST = ([1]=1,[2]=1,[3]=1)
 CONNECTIVITYSHAREZONE =           1
 -1.349388969591E-04 -1.228129987757E-03 -3.118551726973E-03 -5.541584941713E-03 -8.286272639880E-03 -1.119499410940E-02 -1.416307790845E-02
 -1.537788262833E-06 -1.221966100866E-05 -3.000097271475E-05 -5.189744615102E-05 -7.592891537856E-05 -1.008767010463E-04 -1.260703521064E-04
 -1.501623212994E-09 -3.229287424027E-08 -1.195910090384E-07 -2.618645012638E-07 -4.440508564059E-07 -6.485526963736E-07 -8.614633407058E-07
 -6.110551478888E-01 -6.109387909161E-01 -6.107299722859E-01 -6.104538001730E-01 -6.101335124621E-01 -6.097889214730E-01 -6.094347674473E-01
 -2.650305418675E-03 -2.750619128069E-03 -2.931968279666E-03 -3.173822442614E-03 -3.456984032488E-03 -3.764083999130E-03 -4.081072725875E-03
  0.000000000000E+00  0.000000000000E+00 -6.473675263501E-05 -7.707295061404E-05 -8.395775519940E-05 -8.696766457111E-05 -8.766474719411E-05
 -3.062030094588E-03 -3.062029689659E-03 -3.062028973859E-03 -3.062028036155E-03 -3.062026956412E-03 -3.062025800183E-03 -3.062024614153E-03
 -9.346199464973E-04 -9.346442593365E-04 -9.346863026731E-04 -9.347401913763E-04 -9.348012339424E-04 -9.348659250939E-04 -9.349319370899E-04
  0.000000000000E+00  0.000000000000E+00  0.000000000000E+00  0.000000000000E+00  0.000000000000E+00  0.000000000000E+00  0.000000000000E+00
  5.318091158978E-02  5.520525823272E-02  5.886689904395E-02  6.375421205365E-02  6.948204075161E-02  7.570118262356E-02  8.212843989199E-02
 ZONE t = "whisker load points"
 DATAPACKING=block
 zonetype =FELINESEG
 N=           7 , E=           6
 strandid =            3
 solutiontime =   150.00000000000000     
 VARSHARELIST = ([1]=1,[2]=1,[3]=1)
 CONNECTIVITYSHAREZONE =           1
 -1.394794558270E-04 -1.270833479891E-03 -3.229816524618E-03 -5.743650914590E-03 -8.593815645950E-03 -1.161618372178E-02 -1.470117587909E-02
 -1.751595096469E-06 -1.426062261253E-05 -3.576958847848E-05 -6.304775265664E-05 -9.368894892407E-05 -1.260021167178E-04 -1.589196090027E-04
 -1.606655373733E-09 -3.459432340095E-08 -1.283493872899E-07 -2.814942015933E-07 -4.779586971596E-07 -6.987579497207E-07 -9.287757550438E-07
 -6.111421961282E-01 -6.112373187656E-01 -6.114080062124E-01 -6.116339155797E-01 -6.118962549490E-01 -6.121789265781E-01 -6.124697941143E-01
 -1.962577846616E-03 -1.883655007276E-03 -1.740782345475E-03 -1.550558575546E-03 -1.328812979307E-03 -1.089460894502E-03 -8.430293433317E-04
  0.000000000000E+00  0.000000000000E+00 -6.719578415420E-05 -8.015093447413E-05 -8.746148380164E-05 -9.073098215645E-05 -9.156972936375E-05
 -3.094339253733E-03 -3.094339358586E-03 -3.094339536646E-03 -3.094339757678E-03 -3.094340001556E-03 -3.094340255800E-03 -3.094340513483E-03
 -8.937755248278E-04 -8.938009578761E-04 -8.938449964074E-04 -8.939015085952E-04 -8.939655822717E-04 -8.940335279603E-04 -8.941028823386E-04
  0.000000000000E+00  0.000000000000E+00  0.000000000000E+00  0.000000000000E+00  0.000000000000E+00  0.000000000000E+00  0.000000000000E+00
  3.937079690982E-02  3.778115691608E-02  3.490491256437E-02  3.107819455468E-02  2.662127659329E-02  2.181516233182E-02  1.687194148053E-02
 ZONE t = "whisker load points"
 DATAPACKING=block
 zonetype =FELINESEG
 N=           7 , E=           6
 strandid =            3
 solutiontime =   162.50000000000000     
 VARSHARELIST = ([1]=1,[2]=1,[3]=1)
 CONNECTIVITYSHAREZONE =           1
 -1.382032901255E-04 -1.258827805847E-03 -3.198530136861E-03 -5.686826523015E-03 -8.507325801428E-03 -1.149773430549E-02 -1.454985586946E-02
 -3.381083721281E-06 -2.834170939705E-05 -7.284247728040E-05 -1.310569800853E-04 -1.979909813706E-04 -2.696212633466E-04 -3.430733945571E-04
 -1.576887304725E-09 -3.395118827734E-08 -1.259052052881E-07 -2.760184685519E-07 -4.685021862796E-07 -6.847586385841E-07 -9.100091449441E-07
 -6.111823551862E-01 -6.111042230144E-01 -6.109635934297E-01 -6.107770586766E-01 -6.105600868981E-01 -6.103260891610E-01 -6.100852656319E-01
 -1.294261891523E-03 -1.337319217019E-03 -1.413467771175E-03 -1.512832197333E-03 -1.626754087475E-03 -1.748295632466E-03 -1.872651181095E-03
  0.000000000000E+00  0.000000000000E+00 -6.647749785311E-05 -7.921827384222E-05 -8.635845093559E-05 -8.950079849917E-05 -9.024649174960E-05
 -3.127002247272E-03 -3.127002976037E-03 -3.127004266862E-03 -3.127005948232E-03 -3.127007875368E-03 -3.127009933400E-03 -3.127012041401E-03
 -8.517643569094E-04 -8.517897560494E-04 -8.518337198549E-04 -8.518901180701E-04 -8.519540464053E-04 -8.520218265979E-04 -8.520910064210E-04
  0.000000000000E+00  0.000000000000E+00  0.000000000000E+00  0.000000000000E+00  0.000000000000E+00  0.000000000000E+00  0.000000000000E+00
  2.595922486057E-02  2.682645877485E-02  2.836088509019E-02  3.036439310745E-02  3.266318258869E-02  3.511777146909E-02  3.763133151958E-02
 ZONE t = "whisker load points"
 DATAPACKING=block
 zonetype =FELINESEG
 N=           7 , E=           6
 strandid =            3
 solutiontime =   175.00000000000003     
 VARSHARELIST = ([1]=1,[2]=1,[3]=1)
 CONNECTIVITYSHAREZONE =           1
 -1.392139252461E-04 -1.267973705587E-03 -3.221649918286E-03 -5.727752629477E-03 -8.568328671277E-03 -1.157994493341E-02 -1.465366667346E-02
  1.802402971044E-06  1.413148373814E-05  3.414501117107E-05  5.800348053909E-05  8.329344345347E-05  1.088026305717E-04  1.341728356967E-04
 -1.600573634727E-09 -3.443707428737E-08 -1.276865417043E-07 -2.798938824301E-07 -4.750424577809E-07 -6.942772903327E-07 -9.226209060565E-07
 -6.168003603716E-01 -6.168632125019E-01 -6.169762611555E-01 -6.171260614678E-01 -6.173000907490E-01 -6.174875967963E-01 -6.176805059235E-01
  3.267269128708E-03  3.240409978363E-03  3.186244837263E-03  3.107324835921E-03  3.008566532053E-03  2.896860633022E-03  2.779248826773E-03
  0.000000000000E+00  0.000000000000E+00 -6.761336304939E-05 -8.061173636304E-05 -8.792988147087E-05 -9.118943047007E-05 -9.201265232810E-05
 -3.113157417693E-03 -3.113159727931E-03 -3.113163755944E-03 -3.113168963108E-03 -3.113174903951E-03 -3.113181231165E-03 -3.113187703276E-03
 -8.582329482188E-04 -8.582582240948E-04 -8.583019692607E-04 -8.583580803436E-04 -8.584216770099E-04 -8.584891010252E-04 -8.585579149958E-04
  0.000000000000E+00  0.000000000000E+00  0.000000000000E+00  0.000000000000E+00  0.000000000000E+00  0.000000000000E+00  0.000000000000E+00
  6.495667068089E-02  6.441582480386E-02  6.332689287788E-02  6.174253352810E-02  5.976235340177E-02  5.752485944265E-02  5.517103130387E-02
 ZONE t = "whisker load points"
 DATAPACKING=block
 zonetype =FELINESEG
 N=           7 , E=           6
 strandid =            3
 solutiontime =   187.50000000000003     
 VARSHARELIST = ([1]=1,[2]=1,[3]=1)
 CONNECTIVITYSHAREZONE =           1
 -1.402509931832E-04 -1.277707991079E-03 -3.246976493081E-03 -5.773696784390E-03 -8.638198938119E-03 -1.167558313608E-02 -1.477581290379E-02
  9.704021260758E-06  8.114267490719E-05  2.080388428413E-04  3.734062777179E-04  5.628949719103E-04  7.651864587132E-04  9.723937548878E-04
 -1.630283392019E-09 -3.510483997838E-08 -1.302359782946E-07 -2.856117939560E-07 -4.849203066265E-07 -7.089025608234E-07 -9.422305646062E-07
 -6.169445755869E-01 -6.169020304297E-01 -6.168257821037E-01 -6.167250848317E-01 -6.166084087541E-01 -6.164829317356E-01 -6.163539781666E-01
  3.979065154819E-03  3.920675252348E-03  3.814734966365E-03  3.672822825072E-03  3.505800496785E-03  3.323823120578E-03  3.135460947986E-03
  0.000000000000E+00  0.000000000000E+00 -6.816863105330E-05 -8.125847970580E-05 -8.860731002450E-05 -9.185313258670E-05 -9.263601767341E-05
 -3.142864587638E-03 -3.142865895951E-03 -3.142868088729E-03 -3.142870844746E-03 -3.142873923647E-03 -3.142877157294E-03 -3.142880441025E-03
 -8.151474913213E-04 -8.151732429810E-04 -8.152178355038E-04 -8.152750584795E-04 -8.153399374162E-04 -8.154087365698E-04 -8.154789621415E-04
  0.000000000000E+00  0.000000000000E+00  0.000000000000E+00  0.000000000000E+00  0.000000000000E+00  0.000000000000E+00  0.000000000000E+00
  7.909886483475E-02  7.794276011742E-02  7.584470907361E-02  7.303339709998E-02  6.972343236939E-02  6.611570321328E-02  6.237998488231E-02
 ZONE t = "whisker load points"
 DATAPACKING=block
 zonetype =FELINESEG
 N=           7 , E=           6
 strandid =            3
 solutiontime =   200.00000000000000     
 VARSHARELIST = ([1]=1,[2]=1,[3]=1)
 CONNECTIVITYSHAREZONE =           1
 -1.385467650376E-04 -1.261660864502E-03 -3.205122114916E-03 -5.697613821096E-03 -8.522305119908E-03 -1.151675412383E-02 -1.457278989246E-02
  8.181869482523E-06  6.793601297905E-05  1.731477026136E-04  3.092137205233E-04  4.642140696306E-04  6.290448314635E-04  7.975420240100E-04
 -1.589505385191E-09 -3.418736422109E-08 -1.267273059930E-07 -2.777254247989E-07 -4.712698729219E-07 -6.886613692103E-07 -9.150638207698E-07
 -6.171058038010E-01 -6.171342489752E-01 -6.171853614118E-01 -6.172531472696E-01 -6.173320134347E-01 -6.174171122170E-01 -6.175047364831E-01
  4.720838432480E-03  4.780708182434E-03  4.889634953127E-03  5.034941768693E-03  5.204472498543E-03  5.387506337372E-03  5.575935615687E-03
  0.000000000000E+00  0.000000000000E+00 -6.730165925117E-05 -8.021611536173E-05 -8.747467643783E-05 -9.069680432272E-05 -9.149899044859E-05
 -3.172026585275E-03 -3.172028695014E-03 -3.172032304500E-03 -3.172036907741E-03 -3.172042106044E-03 -3.172047604709E-03 -3.172053209842E-03
 -7.709881437915E-04 -7.710137760989E-04 -7.710581365699E-04 -7.711150329332E-04 -7.711795156611E-04 -7.712478761388E-04 -7.713176443984E-04
  0.000000000000E+00  0.000000000000E+00  0.000000000000E+00  0.000000000000E+00  0.000000000000E+00  0.000000000000E+00  0.000000000000E+00
  9.383155211123E-02  9.501809783592E-02  9.717677893730E-02  1.000560572064E-01  1.034147501535E-01  1.070402212139E-01  1.107717478447E-01
 ZONE t = "whisker load points"
 DATAPACKING=block
 zonetype =FELINESEG
 N=           7 , E=           6
 strandid =            3
 solutiontime =   212.50000000000003     
 VARSHARELIST = ([1]=1,[2]=1,[3]=1)
 CONNECTIVITYSHAREZONE =           1
 -1.406301300543E-04 -1.281245476578E-03 -3.256130986386E-03 -5.790220294852E-03 -8.663215323628E-03 -1.170969987443E-02 -1.481926511195E-02
  5.028457676509E-06  4.086756579234E-05  1.022370169876E-04  1.796245610229E-04  2.660196090126E-04  3.566543345531E-04  4.486882861542E-04
 -1.634718021962E-09 -3.519620577460E-08 -1.305684867684E-07 -2.863330822881E-07 -4.861358625961E-07 -7.106700932203E-07 -9.445707369944E-07
 -6.172501828980E-01 -6.172298248542E-01 -6.171932076781E-01 -6.171446819182E-01 -6.170882698719E-01 -6.170274502754E-01 -6.169648611603E-01
  5.407324676055E-03  5.395486979256E-03  5.375349738047E-03  5.350044097384E-03  5.322002789450E-03  5.292854937976E-03  5.263449911430E-03
  0.000000000000E+00  0.000000000000E+00 -6.839666968637E-05 -8.154218637743E-05 -8.892979098237E-05 -9.220052885106E-05 -9.299881588532E-05
 -3.200528575971E-03 -3.200531581733E-03 -3.200536801430E-03 -3.200543529901E-03 -3.200551188539E-03 -3.200559331591E-03 -3.200567653769E-03
 -7.289547820047E-04 -7.289808755832E-04 -7.290260526180E-04 -7.290840179791E-04 -7.291497319562E-04 -7.292194119341E-04 -7.292905342294E-04
  0.000000000000E+00  0.000000000000E+00  0.000000000000E+00  0.000000000000E+00  0.000000000000E+00  0.000000000000E+00  0.000000000000E+00
  1.074634089145E-01  1.072314770518E-01  1.068372477874E-01  1.063422050385E-01  1.057940123212E-01  1.052244585093E-01  1.046499804030E-01
 ZONE t = "whisker load points"
 DATAPACKING=block
 zonetype =FELINESEG
 N=           7 , E=           6
 strandid =            3
 solutiontime =   225.00000000000003     
 VARSHARELIST = ([1]=1,[2]=1,[3]=1)
 CONNECTIVITYSHAREZONE =           1
 -1.383345384083E-04 -1.259699491709E-03 -3.200079089141E-03 -5.688554413360E-03 -8.508634987335E-03 -1.149815329908E-02 -1.454913517835E-02
  1.141556349219E-05  9.364170314052E-05  2.361571101383E-04  4.178442597321E-04  6.224414107856E-04  8.383251115355E-04  1.058177581301E-03
 -1.588792532100E-09 -3.416813428649E-08 -1.266420578313E-07 -2.775080187779E-07 -4.708564610515E-07 -6.880072238017E-07 -9.141486212013E-07
 -6.165328922279E-01 -6.165534440680E-01 -6.165909409615E-01 -6.166413117497E-01 -6.167005190003E-01 -6.167648374178E-01 -6.168312770730E-01
  9.831106189364E-03  9.762978208907E-03  9.634848324521E-03  9.458484210285E-03  9.247137290167E-03  9.014609168933E-03  8.772957107002E-03